
                                 *****************
                                 * O   R   C   A *
                                 *****************

                                            #,                                       
                                            ###                                      
                                            ####                                     
                                            #####                                    
                                            ######                                   
                                           ########,                                 
                                     ,,################,,,,,                         
                               ,,#################################,,                 
                          ,,##########################################,,             
                       ,#########################################, ''#####,          
                    ,#############################################,,   '####,        
                  ,##################################################,,,,####,       
                ,###########''''           ''''###############################       
              ,#####''   ,,,,##########,,,,          '''####'''          '####       
            ,##' ,,,,###########################,,,                        '##       
           ' ,,###''''                  '''############,,,                           
         ,,##''                                '''############,,,,        ,,,,,,###''
      ,#''                                            '''#######################'''  
     '                                                          ''''####''''         
             ,#######,   #######,   ,#######,      ##                                
            ,#'     '#,  ##    ##  ,#'     '#,    #''#        ,####,    ,#,          
            ##       ##  ##   ,#'  ##            #'  '#       #'       ,# #          
            ##       ##  #######   ##           ,######,      #####,      #          
            '#,     ,#'  ##    ##  '#,     ,#' ,#      #,     #,   #      #          
             '#######'   ##     ##  '#######'  #'      '#     '####' #    #          



                #########################################################
                #                        -***-                          #
                #          Department of theory and spectroscopy        #
                #                                                       #
                #                      Frank Neese                      #
                #                                                       #
                #     Directorship, Architecture, Infrastructure        #
                #                    SHARK, DRIVERS                     #
                #        Core code/Algorithms in most modules           #
                #                                                       #
                #        Max Planck Institute fuer Kohlenforschung      #
                #                Kaiser Wilhelm Platz 1                 #
                #                 D-45470 Muelheim/Ruhr                 #
                #                      Germany                          #
                #                                                       #
                #                  All rights reserved                  #
                #                        -***-                          #
                #########################################################


                         Program Version 6.1.0  -  RELEASE   -
                                (GIT: $679e74b$)
                          ($2025-06-10 18:02:51 +0200$)


 With contributions from (in alphabetic order):
[Max-Planck-Institut fuer Kohlenforschung]                               
  Daniel Aravena         : Magnetic Suceptibility                        
  Michael Atanasov       : Ab Initio Ligand Field Theory (pilot matlab implementation)
  Alexander A. Auer      : GIAO ZORA, VPT2 properties, NMR spectrum      
  Ute Becker             : All parallelization in ORCA, NUMFREQ, NUMCALC 
  Giovanni Bistoni       : ED, misc. LED, open-shell LED, HFLD           
  Dmytro Bykov           : pre 5.0 version of the SCF Hessian            
  Marcos Casanova-Páez   : Triplet and SCS-CIS(D). UHF-(DLPNO)-IP/EA/STEOM-CCSD. UHF-CVS-IP/STEOM-CCSD   
  Vijay G. Chilkuri      : MRCI spin determinant printing, contributions to CSF-ICE 
  Pauline Colinet        : FMM embedding                                 
  Dipayan Datta          : RHF DLPNO-CCSD density                        
  Achintya Kumar Dutta   : EOM-CC, STEOM-CC                              
  Nicolas Foglia         : Exact transition moments, OPA infrastructure, MCD improvements    
  Dmitry Ganyushin       : Spin-Orbit,Spin-Spin,Magnetic field MRCI      
  Miquel Garcia-Rates    : C-PCM and meta-GGA Hessian, CCSD/C-PCM, Gaussian charge scheme 
  Tiago L. C. Gouveia    : GS-ROHF, GS-ROCIS                             
  Yang Guo               : DLPNO-NEVPT2, F12-NEVPT2, CIM, IAO-localization        
  Andreas Hansen         : Spin unrestricted coupled pair/coupled cluster methods 
  Ingolf Harden          : AUTO-CI MPn and infrastructure                
  Benjamin Helmich-Paris : MC-RPA, TRAH-(SCF,CASSCF), AVAS, COSX integrals, SCF dyn. polar., MC-PDFT, srDFT 
  Lee Huntington         : MR-EOM, pCC                                   
  Robert Izsak           : Overlap fitted RIJCOSX, COSX-SCS-MP3, EOM     
  Riya Kayal             : Wick's Theorem for AUTO-CI, AUTO-CI UHF-CCSDT 
  Emily Kempfer          : AUTO-CI RHF CISDT and CCSDT, approximate NEVPT4
  Christian Kollmar      : KDIIS, OOCD, Brueckner-CCSD(T), CCSD density, CASPT2, CASPT2-K, improved NEVPT2 
  Axel Koslowski         : Symmetry handling                             
  Simone Kossmann        : meta-GGA functionals, TD-DFT gradient, OOMP2, (MP2 Hessian; deprecated post 5.0) 
  Lucas Lang             : DCDCAS, Hyperfine gauge corrections, ICE-SOC+SSC
  Marvin Lechner         : AUTO-CI (C++ implementation), FIC-MRCC        
  Spencer Leger          : CASSCF response                               
  Dagmar Lenk            : GEPOL surface, SMD, ORCA-2-JSON               
  Dimitrios Liakos       : Extrapolation schemes; Compound Job, Property file
  Dimitrios Manganas     : Further ROCIS development; embedding schemes. LFT, Crystal Embedding 
  Dimitrios Pantazis     : SARC Basis sets                               
  Anastasios Papadopoulos: AUTO-CI, single reference methods and gradients 
  Taras Petrenko         : pre 6.0 DFT Hessian and TD-DFT gradient,  ECA, NRVS 
  Petra Pikulova         : Analytic Raman intensities                    
  Peter Pinski           : DLPNO-MP2, DLPNO-MP2 Gradient                 
  Shashank Vittal Rao    : ES-AILFT, MagRelax                            
  Christoph Reimann      : Effective Core Potentials                     
  Marius Retegan         : Local ZFS, SOC                                
  Christoph Riplinger    : Optimizer, TS searches, QM/MM, DLPNO-CCSD(T), (RO)-DLPNO pert. Triples 
  Michael Roemelt        : Original ROCIS implementation, recursive CI coupling coefficients
  Masaaki Saitow         : Open-shell DLPNO-CCSD energy and density      
  Barbara Sandhoefer     : DKH picture change effects                    
  Yorick L. A. Schmerwitz: GMF and freeze-and-release deltaSCF, NEB S-IDPP initial path                    
  Kantharuban Sivalingam : CASSCF convergence/infrastructure, NEVPT2, NEVPT3, NEVPT4(SD), FIC-MRCI and CEPA variants
  Bernardo de Souza      : ESD, SOC TD-DFT                               
  Georgi L. Stoychev     : AutoAux, RI-MP2 NMR, DLPNO-MP2 response, X2C  
  Van Anh Tran           : RI-MP2 g-tensors                              
  Willem Van den Heuvel  : Paramagnetic NMR                              
  Zikuan Wang            : NOTCH, Electric field optimization            
  Frank Wennmohs         : Technical directorship and infrastructure     
  Hang Xu                : AUTO-CI-Response properties                   
                                                                         
[FACCTs GmbH]                                                            
  Markus Bursch, Nicolas Foglia, Miquel Garcia-Rates, Ingolf Harden, Hagen Neugebauer, Anastasios Papadopoulos, 
  Christoph Riplinger, Bernardo de Souza, Georgi L. Stoychev                                                    
                                                                 
  APM, various basis sets, CI-OPT, improved COSX, DLPNO-Multilevel,           
  DOCKER, DRACO, updates on ESD, Fragmentator, GOAT, IRC, LR-CPCM, L-BFGS, MBIS, meta-GGA TD-DFT gradient, ML-optimized integration grids, 
  MM, NACMEs, nearIR, NEB, NEB-TS, NL-DFT gradient (VV10), 2- and 3-layer-ONIOM, interface openCOSMO-RS, QMMM,   
  Crystal-QMMM, RESP, rigid body optimization, SF, symmetry and pop. for TD-DFT, various functionals, SOLVATOR                                   
                                                                         
[Other institutions]                                                     
  V. Asgeirsson          : NEB                                           
  Christoph Bannwarth    : sTDA-DFT, sTD-DFT, PBEh-3c, B97-3c, D3        
  Giovanni Bistoni       : ETS/NOCV, ADLD/ADEX, COVALED                  
  Martin Brehm           : Molecular dynamics                            
  Ronald Cardenas        : ETS/NOCV                                      
  Martina Colucci        : COVALED                                       
  Sebastian Ehlert       : rSCAN, r2SCAN, r2SCAN-3c, D4, dhf basis sets  
  Marvin Friede          : D4 for Fr, Ra, Ac-Lr                          
  Lars Goerigk           : TD-DFT with DH, B97 family of functionals     
  Stefan Grimme          : VdW corrections, initial TS optimization, DFT functionals, gCP, sTDA/sTD-DF 
  Waldemar Hujo          : DFT-NL                                        
  H. Jonsson             : NEB                                           
  Holger Kruse           : gCP                                           
  Marcel Mueller         : wB97X-3c, vDZP basis set                      
  Hagen Neugebauer       : wr2SCAN, Native XTB                           
  Gianluca Regni         : ADLD/ADEX                                     
  Tobias Risthaus        : pre 6.0 range-separated hybrid DFT and stability analysis
  Lukas Wittmann         : regularized MP2, r2SCAN double-hybrids, wr2SCAN        
                                                                         
We gratefully acknowledge several colleagues who have allowed us to      
interface, adapt or use parts of their codes:                            
  Ed Valeev, F. Pavosevic, A. Kumar             : LibInt (2-el integral package), F12 methods 
  Garnet Chan, S. Sharma, J. Yang, R. Olivares  : DMRG                   
  Ulf Ekstrom                                   : XCFun DFT Library      
  Mihaly Kallay                                 : mrcc  (arbitrary order and MRCC methods)
  Frank Weinhold                                : gennbo (NPA and NBO analysis)           
  Simon Mueller                                 : openCOSMO-RS                            
  Christopher J. Cramer and Donald G. Truhlar   : smd solvation model                     
  S Lehtola, MJT Oliveira, MAL Marques          : LibXC Library                           
  Liviu Ungur et al                             : ANISO software                          


 Your calculation uses the libint2 library for the computation of 2-el integrals
 For citations please refer to: http://libint.valeyev.net

 Your ORCA version has been built with support for libXC version: 7.0.0
 For citations please refer to: https://libxc.gitlab.io

 This ORCA versions uses:
   CBLAS   interface :  Fast vector & matrix operations
   LAPACKE interface :  Fast linear algebra routines
   SCALAPACK package :  Parallel linear algebra routines
   Shared memory     :  Shared parallel matrices
   BLAS/LAPACK       :  OpenBLAS 0.3.29  USE64BITINT DYNAMIC_ARCH NO_AFFINITY Zen SINGLE_THREADED
        Core in use  :  Zen
   Copyright (c) 2011-2014, The OpenBLAS Project


  ***********************************
  * Starting time: Wed Sep 10 13:35:58 2025
  * Host name:     wyk-Server
  * Process ID:    2296574
  * Working dir.:  /home/wyk/Documents/code/openQDC/MGMR/singlepointcalc/61/prod
  ***********************************

Your calculation utilizes the atom-pairwise dispersion correction
with the Becke-Johnson damping scheme (D3BJ)


Warning: RI is on but no J-basis has been assigned. Assigning Def2/J (nothing to worry about!)
================================================================================

----- Orbital basis set information -----
Your calculation utilizes the basis: def2-SVP
   F. Weigend and R. Ahlrichs, Phys. Chem. Chem. Phys. 7, 3297 (2005).

----- AuxJ basis set information -----
Your calculation utilizes the auxiliary basis: def2/J
   H-Rn: F. Weigend, Phys. Chem. Chem. Phys. 8, 1057 (2006).
   Fr-Lr: K. Eichkorn, F. Weigend, O. Treutler, R. Ahlrichs; Theor. Chem. Acc. 97, 119 (1997).

================================================================================
                                        WARNINGS
                       Please study these warnings very carefully!
================================================================================


================================================================================
                                       INPUT FILE
================================================================================
NAME = orca.inp
|  1> ! B3LYP def2-SVP d3 EnGrad 
|  2> %pal nprocs 6 end 
|  3> *xyz 0 1 
|  4> P   -0.59858338284403 0.14038367806051 -0.2899381940817
|  5> H   -1.00828587165737 0.08380153116479 -1.69119712703186
|  6> C   -1.14118336109795 1.22988184690259 0.86320353550148
|  7> C   -1.00363832026539 -1.5797248822246 0.17619896280307
|  8> H   1.74026558394636 0.70449639584376 1.50189081885212
|  9> H   -0.80532921102341 2.26761255363254 0.77647355237913
| 10> H   -2.13869138532476 1.06997184218066 1.28205134285158
| 11> H   -0.54181474665525 -1.81522005021496 1.14512833133451
| 12> H   -2.09625156359593 -1.66890371482952 0.27557947816759
| 13> H   -0.65701804351988 -2.28159125415196 -0.59729008086957
| 14> H   1.94912675503674 -1.00022391563779 1.05011745324726
| 15> C   2.05574842613768 0.03546563208879 0.68873974698234
| 16> C   1.21521613787665 0.27684195694583 -0.56468876843304
| 17> H   3.12401096355906 0.20721755179664 0.48138561118357
| 18> H   1.37673175186085 1.29587711560549 -0.95773277441784
| 19> H   1.47658426756663 -0.41804028716278 -1.38104488846865
| 20> *
| 21> 
| 22>                          ****END OF INPUT****
================================================================================

                     *******************************
                     * Energy+Gradient Calculation *
                     *******************************

---------------------------------
CARTESIAN COORDINATES (ANGSTROEM)
---------------------------------
  P     -0.598583    0.140384   -0.289938
  H     -1.008286    0.083802   -1.691197
  C     -1.141183    1.229882    0.863204
  C     -1.003638   -1.579725    0.176199
  H      1.740266    0.704496    1.501891
  H     -0.805329    2.267613    0.776474
  H     -2.138691    1.069972    1.282051
  H     -0.541815   -1.815220    1.145128
  H     -2.096252   -1.668904    0.275579
  H     -0.657018   -2.281591   -0.597290
  H      1.949127   -1.000224    1.050117
  C      2.055748    0.035466    0.688740
  C      1.215216    0.276842   -0.564689
  H      3.124011    0.207218    0.481386
  H      1.376732    1.295877   -0.957733
  H      1.476584   -0.418040   -1.381045

----------------------------
CARTESIAN COORDINATES (A.U.)
----------------------------
  NO LB      ZA    FRAG     MASS         X           Y           Z
   0 P    15.0000    0    30.974   -1.131159    0.265287   -0.547904
   1 H     1.0000    0     1.008   -1.905384    0.158362   -3.195899
   2 C     6.0000    0    12.011   -2.156524    2.324140    1.631218
   3 C     6.0000    0    12.011   -1.896602   -2.985247    0.332968
   4 H     1.0000    0     1.008    3.288625    1.331305    2.838162
   5 H     1.0000    0     1.008   -1.521852    4.285167    1.467322
   6 H     1.0000    0     1.008   -4.041541    2.021954    2.422726
   7 H     1.0000    0     1.008   -1.023881   -3.430269    2.163979
   8 H     1.0000    0     1.008   -3.961341   -3.153771    0.520770
   9 H     1.0000    0     1.008   -1.241584   -4.311583   -1.128715
  10 H     1.0000    0     1.008    3.683316   -1.890149    1.984434
  11 C     6.0000    0    12.011    3.884802    0.067020    1.301529
  12 C     6.0000    0    12.011    2.296426    0.523155   -1.067107
  13 H     1.0000    0     1.008    5.903525    0.391584    0.909687
  14 H     1.0000    0     1.008    2.601646    2.448853   -1.809853
  15 H     1.0000    0     1.008    2.790340   -0.789982   -2.609797

--------------------------------
INTERNAL COORDINATES (ANGSTROEM)
--------------------------------
 P      0   0   0     0.000000000000     0.00000000     0.00000000
 H      1   0   0     1.461021651400     0.00000000     0.00000000
 C      1   2   0     1.676650483797   126.44474624     0.00000000
 C      1   2   3     1.827601381736    98.39639043   124.53824436
 H      3   1   2     2.997782403877    73.83431197   215.05336982
 H      3   1   2     1.094168688907   117.54450386   288.63644955
 H      3   1   2     1.093630172284   117.61766560    76.24330440
 H      4   1   2     1.098891763775   109.47793682   166.40366206
 H      4   1   2     1.100742045404   108.61906910   284.92872856
 H      4   1   2     1.100475952020   110.56041541    44.40165855
 H      5   3   1     1.775892311779   103.12523707   325.79329548
 C      5   3   1     1.099248039457   102.99848015     3.06813376
 C     12   5   3     1.528345543739   110.65321026    27.27796236
 H     12   5   3     1.101671143497   108.82271649   149.18307081
 H     13  12   5     1.104084932777   110.93258520    64.05059926
 H     13  12   5     1.103454551450   112.14916033   182.93739940

---------------------------
INTERNAL COORDINATES (A.U.)
---------------------------
 P      0   0   0     0.000000000000     0.00000000     0.00000000
 H      1   0   0     2.760930796876     0.00000000     0.00000000
 C      1   2   0     3.168410236683   126.44474624     0.00000000
 C      1   2   3     3.453666093458    98.39639043   124.53824436
 H      3   1   2     5.664987752416    73.83431197   215.05336982
 H      3   1   2     2.067679166346   117.54450386   288.63644955
 H      3   1   2     2.066661517409   117.61766560    76.24330440
 H      4   1   2     2.076604484356   109.47793682   166.40366206
 H      4   1   2     2.080101009906   108.61906910   284.92872856
 H      4   1   2     2.079598166285   110.56041541    44.40165855
 H      5   3   1     3.355950112599   103.12523707   325.79329548
 C      5   3   1     2.077277747824   102.99848015     3.06813376
 C     12   5   3     2.888154515666   110.65321026    27.27796236
 H     12   5   3     2.081856750853   108.82271649   149.18307081
 H     13  12   5     2.086418151538   110.93258520    64.05059926
 H     13  12   5     2.085226903469   112.14916033   182.93739940

---------------------
BASIS SET INFORMATION
---------------------
There are 3 groups of distinct atoms

 Group   1 Type P   : 10s7p1d contracted to 4s3p1d pattern {5311/511/1}
 Group   2 Type H   : 4s1p contracted to 2s1p pattern {31/1}
 Group   3 Type C   : 7s4p1d contracted to 3s2p1d pattern {511/31/1}

Atom   0P    basis set group =>   1
Atom   1H    basis set group =>   2
Atom   2C    basis set group =>   3
Atom   3C    basis set group =>   3
Atom   4H    basis set group =>   2
Atom   5H    basis set group =>   2
Atom   6H    basis set group =>   2
Atom   7H    basis set group =>   2
Atom   8H    basis set group =>   2
Atom   9H    basis set group =>   2
Atom  10H    basis set group =>   2
Atom  11C    basis set group =>   3
Atom  12C    basis set group =>   3
Atom  13H    basis set group =>   2
Atom  14H    basis set group =>   2
Atom  15H    basis set group =>   2
---------------------------------
AUXILIARY/J BASIS SET INFORMATION
---------------------------------
There are 3 groups of distinct atoms

 Group   1 Type P   : 14s5p5d2f1g contracted to 8s4p3d1f1g pattern {71111111/2111/311/2/1}
 Group   2 Type H   : 5s2p1d contracted to 3s1p1d pattern {311/2/1}
 Group   3 Type C   : 12s5p4d2f1g contracted to 6s4p3d1f1g pattern {711111/2111/211/2/1}

Atom   0P    basis set group =>   1
Atom   1H    basis set group =>   2
Atom   2C    basis set group =>   3
Atom   3C    basis set group =>   3
Atom   4H    basis set group =>   2
Atom   5H    basis set group =>   2
Atom   6H    basis set group =>   2
Atom   7H    basis set group =>   2
Atom   8H    basis set group =>   2
Atom   9H    basis set group =>   2
Atom  10H    basis set group =>   2
Atom  11C    basis set group =>   3
Atom  12C    basis set group =>   3
Atom  13H    basis set group =>   2
Atom  14H    basis set group =>   2
Atom  15H    basis set group =>   2


           ************************************************************
           *        Program running with 6 parallel MPI-processes     *
           *              working on a common directory               *
           ************************************************************
------------------------------------------------------------------------------
                             ORCA STARTUP CALCULATIONS
                           -- RI-GTO INTEGRALS CHOSEN --
------------------------------------------------------------------------------
------------------------------------------------------------------------------
                   ___                                                        
                  /   \      - P O W E R E D   B Y -                         
                 /     \                                                     
                 |  |  |   _    _      __       _____    __    __             
                 |  |  |  | |  | |    /  \     |  _  \  |  |  /  |          
                  \  \/   | |  | |   /    \    | | | |  |  | /  /          
                 / \  \   | |__| |  /  /\  \   | |_| |  |  |/  /          
                |  |  |   |  __  | /  /__\  \  |    /   |      \           
                |  |  |   | |  | | |   __   |  |    \   |  |\   \          
                \     /   | |  | | |  |  |  |  | |\  \  |  | \   \       
                 \___/    |_|  |_| |__|  |__|  |_| \__\ |__|  \__/        
                                                                              
                      - O R C A' S   B I G   F R I E N D -                    
                                      &                                       
                       - I N T E G R A L  F E E D E R -                       
                                                                              
 v1 FN, 2020, v2 2021, v3 2022-2024                                           
------------------------------------------------------------------------------


----------------------
SHARK INTEGRAL PACKAGE
----------------------

Number of atoms                             ...     16
Number of basis functions                   ...    129
Number of shells                            ...     65
Maximum angular momentum                    ...      2
Integral batch strategy                     ... SHARK/LIBINT Hybrid
RI-J (if used) integral strategy            ... SPLIT-RIJ (Revised 2003 algorithm where possible)
Printlevel                                  ...      1
Contraction scheme used                     ... SEGMENTED contraction
Prescreening option                         ... SCHWARTZ
   Thresh                                   ... 2.500e-11
   Tcut                                     ... 2.500e-12
   Tpresel                                  ... 2.500e-12 
Coulomb Range Separation                    ... NOT USED
Exchange Range Separation                   ... NOT USED
Multipole approximations                    ... NOT USED
Finite Nucleus Model                        ... NOT USED
CABS basis                                  ... NOT available
Auxiliary Coulomb fitting basis             ... AVAILABLE
   # of basis functions in Aux-J            ...    368
   # of shells in Aux-J                     ...    132
   Maximum angular momentum in Aux-J        ...      4
Auxiliary J/K fitting basis                 ... NOT available
Auxiliary Correlation fitting basis         ... NOT available
Auxiliary 'external' fitting basis          ... NOT available

Checking pre-screening integrals            ... done (  0.0 sec) Dimension = 65
   => SHARK Basis and OBASIS are compatible. Storing Pre-screening
Shell pair information
Shell pair cut-off parameter TPreSel        ...   2.5e-12
Total number of shell pairs                 ...      2145
Shell pairs after pre-screening             ...      2102
Total number of primitive shell pairs       ...      7489
Primitive shell pairs kept                  ...      5619
          la=0 lb=0:    727 shell pairs
          la=1 lb=0:    815 shell pairs
          la=1 lb=1:    245 shell pairs
          la=2 lb=0:    190 shell pairs
          la=2 lb=1:    110 shell pairs
          la=2 lb=2:     15 shell pairs

Checking whether 4 symmetric matrices of dimension 129 fit in memory
:Max Core in MB      =   4096.00
 MB in use           =      5.98
 MB left             =   4090.02
 MB needed           =      0.26
 Data fit in memory  = YES
Calculating RI/J V-Matrix + Cholesky decomp.... done (  0.0 sec)
Calculating Nuclear repulsion               ... done (  0.0 sec) ENN=    248.225544626465 Eh

Diagonalization of the overlap matrix:
Smallest eigenvalue                        ... 2.566e-03
Time for diagonalization                   ...    0.003 sec
Threshold for overlap eigenvalues          ... 1.000e-07
Number of eigenvalues below threshold      ... 0
Time for construction of square roots      ...    0.001 sec
Total time needed                          ...    0.006 sec

-------------------
DFT GRID GENERATION
-------------------

General Integration Accuracy     IntAcc      ... 4.388
Radial Grid Type                 RadialGrid  ... OptM3 with GC (2021)
Angular Grid (max. ang.)         AngularGrid ... 4 (Lebedev-302)
Angular grid pruning method      GridPruning ... 4 (adaptive)
Weight generation scheme         WeightScheme... mBecke (2022)
Basis function cutoff            BFCut       ... 1.0000e-11
Integration weight cutoff        WCut        ... 1.0000e-14
Partially contracted basis set               ... off
Rotationally invariant grid construction     ... off
Angular grids for H and He will be reduced by one unit

Total number of grid points                  ...    66853
Total number of batches                      ...     1053
Average number of points per batch           ...       63
Average number of grid points per atom       ...     4178

--------------------
COSX GRID GENERATION
--------------------

GRIDX 1
-------
General Integration Accuracy     IntAcc      ... 3.816
Radial Grid Type                 RadialGrid  ... OptM3 with GC (2021)
Angular Grid (max. ang.)         AngularGrid ... 1 (Lebedev-50)
Angular grid pruning method      GridPruning ... 4 (adaptive)
Weight generation scheme         WeightScheme... mBecke (2022)
Basis function cutoff            BFCut       ... 1.0000e-11
Integration weight cutoff        WCut        ... 1.0000e-14
Partially contracted basis set               ... on
Rotationally invariant grid construction     ... off
Angular grids for H and He will be reduced by one unit

Total number of grid points                  ...     9639
Total number of batches                      ...       84
Average number of points per batch           ...      114
Average number of grid points per atom       ...      602
UseSFitting                                  ... on

GRIDX 2
-------
General Integration Accuracy     IntAcc      ... 4.020
Radial Grid Type                 RadialGrid  ... OptM3 with GC (2021)
Angular Grid (max. ang.)         AngularGrid ... 2 (Lebedev-110)
Angular grid pruning method      GridPruning ... 4 (adaptive)
Weight generation scheme         WeightScheme... mBecke (2022)
Basis function cutoff            BFCut       ... 1.0000e-11
Integration weight cutoff        WCut        ... 1.0000e-14
Partially contracted basis set               ... on
Rotationally invariant grid construction     ... off
Angular grids for H and He will be reduced by one unit

Total number of grid points                  ...    17598
Total number of batches                      ...      145
Average number of points per batch           ...      121
Average number of grid points per atom       ...     1100
UseSFitting                                  ... on

GRIDX 3
-------
General Integration Accuracy     IntAcc      ... 4.338
Radial Grid Type                 RadialGrid  ... OptM3 with GC (2021)
Angular Grid (max. ang.)         AngularGrid ... 3 (Lebedev-194)
Angular grid pruning method      GridPruning ... 4 (adaptive)
Weight generation scheme         WeightScheme... mBecke (2022)
Basis function cutoff            BFCut       ... 1.0000e-11
Integration weight cutoff        WCut        ... 1.0000e-14
Partially contracted basis set               ... on
Rotationally invariant grid construction     ... off
Angular grids for H and He will be reduced by one unit

Total number of grid points                  ...    38881
Total number of batches                      ...      312
Average number of points per batch           ...      124
Average number of grid points per atom       ...     2430
UseSFitting                                  ... on
Grids setup in   0.8 sec
Initializing property integral containers    ... done (  0.0 sec)

SHARK setup successfully completed in   0.9 seconds

Maximum memory used throughout the entire STARTUP-calculation: 17.9 MB


           ************************************************************
           *        Program running with 6 parallel MPI-processes     *
           *              working on a common directory               *
           ************************************************************
-------------------------------------------------------------------------------
                                 ORCA GUESS
                   Start orbitals & Density for SCF / CASSCF
-------------------------------------------------------------------------------

------------
SCF SETTINGS
------------
Hamiltonian:
 Density Functional     Method          .... DFT(GTOs)
 Exchange Functional    Exchange        .... B88
   X-Alpha parameter    XAlpha          ....  0.666667
   Becke's b parameter  XBeta           ....  0.004200
 Correlation Functional Correlation     .... LYP
 LDA part of GGA corr.  LDAOpt          .... VWN-5
 Gradients option       PostSCFGGA      .... off
 Hybrid DFT is turned on
   Fraction HF Exchange ScalHFX         ....  0.200000
   Scaling of DF-GGA-X  ScalDFX         ....  0.720000
   Scaling of DF-GGA-C  ScalDFC         ....  0.810000
   Scaling of DF-LDA-C  ScalLDAC        ....  1.000000
   Perturbative correction              ....  0.000000
   NL short-range parameter             ....  4.800000
 RI-approximation to the Coulomb term is turned on
   Number of AuxJ basis functions       .... 368
   RIJ-COSX (HFX calculated with COS-X)).... on


General Settings:
 Integral files         IntName         .... orca
 Hartree-Fock type      HFTyp           .... RHF
 Total Charge           Charge          ....    0
 Multiplicity           Mult            ....    1
 Number of Electrons    NEL             ....   50
 Basis Dimension        Dim             ....  129
 Nuclear Repulsion      ENuc            ....    248.2255446265 Eh

Convergence Acceleration:
 AO-DIIS                CNVDIIS         .... on
   Start iteration      DIISMaxIt       ....    12
   Startup error        DIISStart       ....  0.200000
   # of expansion vecs  DIISMaxEq       ....     5
   Bias factor          DIISBfac        ....   1.050
   Max. coefficient     DIISMaxC        ....  10.000
 MO-DIIS                CNVKDIIS        .... off
 Trust-Rad. Augm. Hess. CNVTRAH         .... auto
   Auto Start mean grad. ratio tolernc. ....  1.125000
   Auto Start start iteration           ....    50
   Auto Start num. interpolation iter.  ....    10
   Max. Number of Micro iterations      ....    24
   Max. Number of Macro iterations      .... Maxiter - #DIIS iter
   Number of Davidson start vectors     ....     2
   Converg. threshold    (grad. norm)   ....   1.000e-05
   Grad. Scal. Fac. for Micro threshold ....   0.100
   Minimum threshold for Micro iter.    ....   1.000e-02
   NR start threshold (gradient norm)   ....   1.000e-04
   Initial trust radius                 ....   0.400
   Minimum AH scaling param. (alpha)    ....   1.000
   Maximum AH scaling param. (alpha)    .... 1000.000
   Quad. conv. algorithm                .... NR
   White noise on init. David. guess    .... on
   Maximum white noise                  ....   0.010
   Pseudo random numbers                .... off
   Inactive MOs                         .... canonical
   Orbital update algorithm             .... Taylor
   Preconditioner                       .... Diag
   Full preconditioner red. dimension   ....   250
 SOSCF                 CNVSOSCF           .... on
   Start iteration     SOSCFMaxIt         ....   150
   Startup grad/error  SOSCFStart         ....  0.003300
   Hessian update      SOSCFHessUp        .... L-BFGS
   Autom. constraints  SOSCFAutoConstrain .... off
 Level Shifting         CNVShift        .... on
   Level shift para.    LevelShift      ....    0.2500
   Turn off err/grad.   ShiftErr        ....    0.0010
 Zerner damping         CNVZerner       .... off
 Static damping         CNVDamp         .... on
   Fraction old density DampFac         ....    0.7000
   Max. Damping (<1)    DampMax         ....    0.9800
   Min. Damping (>=0)   DampMin         ....    0.0000
   Turn off err/grad.   DampErr         ....    0.1000

SCF Procedure:
 Maximum # iterations   MaxIter         ....   125
 SCF integral mode      SCFMode         .... Direct
   Integral package                     .... SHARK and LIBINT hybrid scheme
 Reset frequency        DirectResetFreq ....    20
 Integral Threshold     Thresh          ....  2.500e-11 Eh
 Primitive CutOff       TCut            ....  2.500e-12 Eh

Convergence Tolerance:
 Convergence Check Mode ConvCheckMode   .... Total+1el-Energy
 Convergence forced     ConvForced      .... 0
 Energy Change          TolE            ....  1.000e-08 Eh
 1-El. energy change                    ....  1.000e-05 Eh
 Orbital Gradient       TolG            ....  1.000e-05
 Orbital Rotation angle TolX            ....  1.000e-05
 DIIS Error             TolErr          ....  5.000e-07

------------------------------
INITIAL GUESS: MODEL POTENTIAL
------------------------------
Loading Hartree-Fock densities                     ... done
Calculating cut-offs                               ... done
Initializing the effective Hamiltonian             ... done
Setting up the integral package (SHARK)            ... done
Starting the Coulomb interaction                   ... done (   0.0 sec)
Making the grid                                    ... done (   0.1 sec)
Mapping shells                                     ... done
Starting the XC term evaluation                    ... done (   0.0 sec)
  promolecular density results
     # of electrons  =     49.998022989
     EX              =    -46.470408655
     EC              =     -1.699646168
     EX+EC           =    -48.170054823
Transforming the Hamiltonian                       ... done (   0.0 sec)
Diagonalizing the Hamiltonian                      ... done (   0.0 sec)
Back transforming the eigenvectors                 ... done (   0.0 sec)
Now organizing SCF variables                       ... done
                      ------------------
                      INITIAL GUESS DONE (   0.2 sec)
                      ------------------
             **** ENERGY FILE WAS UPDATED (orca.en.tmp) ****
Finished Guess after   0.3 sec
Maximum memory used throughout the entire GUESS-calculation: 8.5 MB


           ************************************************************
           *        Program running with 6 parallel MPI-processes     *
           *              working on a common directory               *
           ************************************************************

-------------------------------------------------------------------------------------------
                                      ORCA LEAN-SCF
                              memory conserving SCF solver
-------------------------------------------------------------------------------------------

----------------------------------------D-I-I-S--------------------------------------------
Iteration    Energy (Eh)           Delta-E    RMSDP     MaxDP     DIISErr   Damp  Time(sec)
-------------------------------------------------------------------------------------------
               ***  Starting incremental Fock matrix formation  ***
    1    -499.6797090902929313     0.00e+00  1.19e-02  1.15e-01  2.56e-01  0.700   0.8
    2    -499.8141578898450916    -1.34e-01  9.06e-03  7.77e-02  1.21e-01  0.700   0.5
                               ***Turning on AO-DIIS***
    3    -499.8638739954345738    -4.97e-02  3.63e-03  2.82e-02  3.48e-02  0.700   0.5
    4    -499.8919914719575672    -2.81e-02  5.56e-03  3.49e-02  1.53e-02  0.000   0.5
    5    -499.9545915475285938    -6.26e-02  1.50e-03  1.57e-02  9.81e-03  0.000   0.5
    6    -499.9553119861174082    -7.20e-04  6.82e-04  7.68e-03  3.82e-03  0.000   0.5
                              *** Initializing SOSCF ***
---------------------------------------S-O-S-C-F--------------------------------------
Iteration    Energy (Eh)           Delta-E    RMSDP     MaxDP     MaxGrad    Time(sec)
--------------------------------------------------------------------------------------
    7    -499.9553916823132340    -7.97e-05  2.83e-04  3.35e-03  1.02e-03     0.5
               *** Restarting incremental Fock matrix formation ***
    8    -499.9553751973420503     1.65e-05  2.88e-04  3.40e-03  3.54e-04     0.7
    9    -499.9553775612414483    -2.36e-06  8.31e-05  6.35e-04  9.89e-05     0.6
   10    -499.9553776064323074    -4.52e-08  5.23e-05  5.07e-04  9.79e-05     0.6
   11    -499.9553780027117682    -3.96e-07  7.24e-06  6.82e-05  9.26e-06     0.6
   12    -499.9553780045273470    -1.82e-09  3.48e-06  3.72e-05  8.37e-06     0.5
                 **** Energy Check signals convergence ****

               *****************************************************
               *                     SUCCESS                       *
               *           SCF CONVERGED AFTER  12 CYCLES          *
               *****************************************************

Recomputing exchange energy using gridx3       ... done (    0.997 sec)
Old exchange energy                            :     -9.443039868 Eh
New exchange energy                            :     -9.443042682 Eh
Exchange energy change after final integration :     -0.000002814 Eh
Total energy after final integration           :   -499.955380822 Eh
             **** ENERGY FILE WAS UPDATED (orca.en.tmp) ****

----------------
TOTAL SCF ENERGY
----------------

Total Energy       :       -499.95538082225880 Eh          -13604.47755 eV

Components:
Nuclear Repulsion  :        248.22554462646545 Eh            6754.56046 eV
Electronic Energy  :       -748.18092263492736 Eh          -20359.03794 eV
One Electron Energy:      -1176.14365326228062 Eh          -32004.49588 eV
Two Electron Energy:        427.96273062735321 Eh           11645.45794 eV

Virial components:
Potential Energy   :       -996.85269079244813 Eh          -27125.74076 eV
Kinetic Energy     :        496.89730997018933 Eh           13521.26321 eV
Virial Ratio       :          2.00615433167117

DFT components:
N(Alpha)           :       24.999998335895 electrons
N(Beta)            :       24.999998335895 electrons
N(Total)           :       49.999996671790 electrons
E(X)               :      -37.414738157772 Eh       
E(C)               :       -2.011118429144 Eh       
E(XC)              :      -39.425856586916 Eh       

---------------
SCF CONVERGENCE
---------------

  Last Energy change         ...    1.8156e-09  Tolerance :   1.0000e-08
  Last MAX-Density change    ...    3.7221e-05  Tolerance :   1.0000e-07
  Last RMS-Density change    ...    3.4821e-06  Tolerance :   5.0000e-09
  Last DIIS Error            ...    1.0243e-03  Tolerance :   5.0000e-07
  Last Orbital Gradient      ...    8.3692e-06  Tolerance :   1.0000e-05
  Last Orbital Rotation      ...    1.3275e-05  Tolerance :   1.0000e-05


----------------
ORBITAL ENERGIES
----------------

  NO   OCC          E(Eh)            E(eV) 
   0   2.0000     -77.095308     -2097.8700 
   1   2.0000     -10.197592      -277.4906 
   2   2.0000     -10.195404      -277.4310 
   3   2.0000     -10.185079      -277.1501 
   4   2.0000     -10.118566      -275.3402 
   5   2.0000      -6.586111      -179.2172 
   6   2.0000      -4.752713      -129.3279 
   7   2.0000      -4.751574      -129.2969 
   8   2.0000      -4.750123      -129.2574 
   9   2.0000      -0.785561       -21.3762 
  10   2.0000      -0.729663       -19.8551 
  11   2.0000      -0.662212       -18.0197 
  12   2.0000      -0.619753       -16.8643 
  13   2.0000      -0.528973       -14.3941 
  14   2.0000      -0.456443       -12.4204 
  15   2.0000      -0.452891       -12.3238 
  16   2.0000      -0.433225       -11.7886 
  17   2.0000      -0.408961       -11.1284 
  18   2.0000      -0.397777       -10.8240 
  19   2.0000      -0.378612       -10.3025 
  20   2.0000      -0.359663        -9.7869 
  21   2.0000      -0.353559        -9.6208 
  22   2.0000      -0.339759        -9.2453 
  23   2.0000      -0.324547        -8.8314 
  24   2.0000      -0.165532        -4.5043 
  25   0.0000       0.041832         1.1383 
  26   0.0000       0.062653         1.7049 
  27   0.0000       0.072459         1.9717 
  28   0.0000       0.091294         2.4842 
  29   0.0000       0.093589         2.5467 
  30   0.0000       0.098332         2.6757 
  31   0.0000       0.112883         3.0717 
  32   0.0000       0.128607         3.4996 
  33   0.0000       0.138270         3.7625 
  34   0.0000       0.146342         3.9822 
  35   0.0000       0.150170         4.0863 
*Only the first 10 virtual orbitals were printed.

                    ********************************
                    * MULLIKEN POPULATION ANALYSIS *
                    ********************************

-----------------------
MULLIKEN ATOMIC CHARGES
-----------------------
   0 P :    0.392159
   1 H :   -0.095956
   2 C :   -0.364780
   3 C :   -0.142515
   4 H :    0.037273
   5 H :    0.019357
   6 H :    0.019096
   7 H :    0.062574
   8 H :    0.062010
   9 H :    0.040368
  10 H :    0.010987
  11 C :    0.024727
  12 C :   -0.160358
  13 H :    0.018431
  14 H :    0.049098
  15 H :    0.027528
Sum of atomic charges:    0.0000000

--------------------------------
MULLIKEN REDUCED ORBITAL CHARGES
--------------------------------
  0 P s       :     5.353555  s :     5.353555
      pz      :     3.001938  p :     8.922416
      px      :     2.961601
      py      :     2.958877
      dz2     :     0.136387  d :     0.331870
      dxz     :     0.040263
      dyz     :     0.044662
      dx2y2   :     0.068489
      dxy     :     0.042070

  1 H s       :     1.080679  s :     1.080679
      pz      :     0.011936  p :     0.015276
      px      :     0.002006
      py      :     0.001334

  2 C s       :     3.139555  s :     3.139555
      pz      :     1.149585  p :     3.207739
      px      :     1.098124
      py      :     0.960029
      dz2     :     0.004254  d :     0.017487
      dxz     :     0.001602
      dyz     :     0.004068
      dx2y2   :     0.005243
      dxy     :     0.002319

  3 C s       :     3.061046  s :     3.061046
      pz      :     1.022254  p :     3.060317
      px      :     1.031032
      py      :     1.007031
      dz2     :     0.004852  d :     0.021152
      dxz     :     0.003366
      dyz     :     0.004815
      dx2y2   :     0.006247
      dxy     :     0.001872

  4 H s       :     0.939241  s :     0.939241
      pz      :     0.009485  p :     0.023486
      px      :     0.005669
      py      :     0.008332

  5 H s       :     0.954802  s :     0.954802
      pz      :     0.006613  p :     0.025842
      px      :     0.006571
      py      :     0.012658

  6 H s       :     0.955097  s :     0.955097
      pz      :     0.008572  p :     0.025807
      px      :     0.012441
      py      :     0.004794

  7 H s       :     0.913783  s :     0.913783
      pz      :     0.012341  p :     0.023642
      px      :     0.006441
      py      :     0.004861

  8 H s       :     0.913774  s :     0.913774
      pz      :     0.005014  p :     0.024216
      px      :     0.014183
      py      :     0.005020

  9 H s       :     0.936025  s :     0.936025
      pz      :     0.009267  p :     0.023607
      px      :     0.005727
      py      :     0.008612

 10 H s       :     0.965993  s :     0.965993
      pz      :     0.005432  p :     0.023020
      px      :     0.004840
      py      :     0.012748

 11 C s       :     2.993236  s :     2.993236
      pz      :     0.974454  p :     2.953182
      px      :     0.966090
      py      :     1.012639
      dz2     :     0.005752  d :     0.028855
      dxz     :     0.005431
      dyz     :     0.007296
      dx2y2   :     0.008650
      dxy     :     0.001727

 12 C s       :     3.086147  s :     3.086147
      pz      :     1.022298  p :     3.044122
      px      :     1.001975
      py      :     1.019849
      dz2     :     0.006256  d :     0.030089
      dxz     :     0.005049
      dyz     :     0.008475
      dx2y2   :     0.008470
      dxy     :     0.001839

 13 H s       :     0.958619  s :     0.958619
      pz      :     0.004534  p :     0.022950
      px      :     0.013185
      py      :     0.005230

 14 H s       :     0.927728  s :     0.927728
      pz      :     0.005417  p :     0.023174
      px      :     0.004970
      py      :     0.012787

 15 H s       :     0.949921  s :     0.949921
      pz      :     0.009222  p :     0.022550
      px      :     0.004890
      py      :     0.008438



                     *******************************
                     * LOEWDIN POPULATION ANALYSIS *
                     *******************************

----------------------
LOEWDIN ATOMIC CHARGES
----------------------
   0 P :    0.843739
   1 H :   -0.128605
   2 C :   -0.542378
   3 C :   -0.200677
   4 H :    0.031390
   5 H :    0.010505
   6 H :    0.010784
   7 H :    0.036712
   8 H :    0.040952
   9 H :    0.029819
  10 H :    0.022042
  11 C :   -0.060855
  12 C :   -0.176924
  13 H :    0.025829
  14 H :    0.034173
  15 H :    0.023496

-------------------------------
LOEWDIN REDUCED ORBITAL CHARGES
-------------------------------
  0 P s       :     4.991876  s :     4.991876
      pz      :     2.932682  p :     8.713793
      px      :     2.891408
      py      :     2.889703
      dz2     :     0.193448  d :     0.450593
      dxz     :     0.051955
      dyz     :     0.061919
      dx2y2   :     0.091939
      dxy     :     0.051332

  1 H s       :     1.086066  s :     1.086066
      pz      :     0.031827  p :     0.042539
      px      :     0.005972
      py      :     0.004740

  2 C s       :     2.956009  s :     2.956009
      pz      :     1.264951  p :     3.541546
      px      :     1.189093
      py      :     1.087502
      dz2     :     0.008237  d :     0.044824
      dxz     :     0.004181
      dyz     :     0.010954
      dx2y2   :     0.014032
      dxy     :     0.007420

  3 C s       :     2.895645  s :     2.895645
      pz      :     1.084915  p :     3.251232
      px      :     1.086621
      py      :     1.079696
      dz2     :     0.012052  d :     0.053801
      dxz     :     0.008404
      dyz     :     0.012355
      dx2y2   :     0.016359
      dxy     :     0.004630

  4 H s       :     0.901838  s :     0.901838
      pz      :     0.028409  p :     0.066771
      px      :     0.015342
      py      :     0.023020

  5 H s       :     0.913828  s :     0.913828
      pz      :     0.019411  p :     0.075666
      px      :     0.018149
      py      :     0.038107

  6 H s       :     0.913387  s :     0.913387
      pz      :     0.024732  p :     0.075829
      px      :     0.038714
      py      :     0.012383

  7 H s       :     0.894131  s :     0.894131
      pz      :     0.036794  p :     0.069157
      px      :     0.017290
      py      :     0.015072

  8 H s       :     0.890539  s :     0.890539
      pz      :     0.012571  p :     0.068509
      px      :     0.041228
      py      :     0.014710

  9 H s       :     0.901878  s :     0.901878
      pz      :     0.026287  p :     0.068303
      px      :     0.015014
      py      :     0.027001

 10 H s       :     0.914225  s :     0.914225
      pz      :     0.015288  p :     0.063734
      px      :     0.012306
      py      :     0.036140

 11 C s       :     2.840238  s :     2.840238
      pz      :     1.034931  p :     3.148382
      px      :     1.045011
      py      :     1.068440
      dz2     :     0.014014  d :     0.072235
      dxz     :     0.015095
      dyz     :     0.017256
      dx2y2   :     0.022012
      dxy     :     0.003860

 12 C s       :     2.895824  s :     2.895824
      pz      :     1.059063  p :     3.209011
      px      :     1.074679
      py      :     1.075269
      dz2     :     0.014132  d :     0.072089
      dxz     :     0.012799
      dyz     :     0.020008
      dx2y2   :     0.021185
      dxy     :     0.003966

 13 H s       :     0.909986  s :     0.909986
      pz      :     0.013312  p :     0.064186
      px      :     0.037926
      py      :     0.012948

 14 H s       :     0.897256  s :     0.897256
      pz      :     0.015969  p :     0.068571
      px      :     0.015908
      py      :     0.036694

 15 H s       :     0.908083  s :     0.908083
      pz      :     0.028724  p :     0.068421
      px      :     0.016480
      py      :     0.023217



                      *****************************
                      * MAYER POPULATION ANALYSIS *
                      *****************************

  NA   - Mulliken gross atomic population
  ZA   - Total nuclear charge
  QA   - Mulliken gross atomic charge
  VA   - Mayer's total valence
  BVA  - Mayer's bonded valence
  FA   - Mayer's free valence

  ATOM       NA         ZA         QA         VA         BVA        FA
  0 P     14.6078    15.0000     0.3922     4.4745     4.4745    -0.0000
  1 H      1.0960     1.0000    -0.0960     0.9284     0.9284    -0.0000
  2 C      6.3648     6.0000    -0.3648     3.5883     3.5883     0.0000
  3 C      6.1425     6.0000    -0.1425     3.9063     3.9063     0.0000
  4 H      0.9627     1.0000     0.0373     1.0195     1.0195     0.0000
  5 H      0.9806     1.0000     0.0194     0.9934     0.9934     0.0000
  6 H      0.9809     1.0000     0.0191     0.9941     0.9941     0.0000
  7 H      0.9374     1.0000     0.0626     1.0062     1.0062     0.0000
  8 H      0.9380     1.0000     0.0620     0.9894     0.9894     0.0000
  9 H      0.9596     1.0000     0.0404     0.9930     0.9930     0.0000
 10 H      0.9890     1.0000     0.0110     0.9923     0.9923    -0.0000
 11 C      5.9753     6.0000     0.0247     3.9825     3.9825    -0.0000
 12 C      6.1604     6.0000    -0.1604     3.9631     3.9631     0.0000
 13 H      0.9816     1.0000     0.0184     0.9826     0.9826    -0.0000
 14 H      0.9509     1.0000     0.0491     0.9773     0.9773     0.0000
 15 H      0.9725     1.0000     0.0275     0.9844     0.9844     0.0000

  Mayer bond orders larger than 0.100000
B(  0-P ,  1-H ) :   0.7748 B(  0-P ,  2-C ) :   1.5142 B(  0-P ,  3-C ) :   1.0230 
B(  0-P , 12-C ) :   0.9902 B(  1-H ,  2-C ) :   0.1130 B(  2-C ,  5-H ) :   0.9544 
B(  2-C ,  6-H ) :   0.9558 B(  3-C ,  7-H ) :   0.9561 B(  3-C ,  8-H ) :   0.9600 
B(  3-C ,  9-H ) :   0.9540 B(  4-H , 11-C ) :   0.9669 B( 10-H , 11-C ) :   0.9722 
B( 11-C , 12-C ) :   1.0692 B( 11-C , 13-H ) :   0.9643 B( 12-C , 14-H ) :   0.9382 
B( 12-C , 15-H ) :   0.9346 

-------
TIMINGS
-------

Total SCF time: 0 days 0 hours 0 min 8 sec 

Total time                  ....       8.193 sec
Sum of individual times     ....       7.707 sec  ( 94.1%)

SCF preparation             ....       0.193 sec  (  2.4%)
Fock matrix formation       ....       7.307 sec  ( 89.2%)
  Startup                   ....       0.005 sec  (  0.1% of F)
  Split-RI-J                ....       0.614 sec  (  8.4% of F)
  Chain of spheres X        ....       5.508 sec  ( 75.4% of F)
  XC integration            ....       1.491 sec  ( 20.4% of F)
    XC Preparation          ....       0.000 sec  (  0.0% of XC)
    Basis function eval.    ....       0.405 sec  ( 27.1% of XC)
    Density eval.           ....       0.222 sec  ( 14.9% of XC)
    XC-Functional eval.     ....       0.077 sec  (  5.1% of XC)
    XC-Potential eval.      ....       0.232 sec  ( 15.6% of XC)
Diagonalization             ....       0.000 sec  (  0.0%)
Density matrix formation    ....       0.027 sec  (  0.3%)
Total Energy calculation    ....       0.015 sec  (  0.2%)
Population analysis         ....       0.014 sec  (  0.2%)
Orbital Transformation      ....       0.016 sec  (  0.2%)
Orbital Orthonormalization  ....       0.000 sec  (  0.0%)
DIIS solution               ....       0.086 sec  (  1.1%)
SOSCF solution              ....       0.049 sec  (  0.6%)
Finished LeanSCF after   8.2 sec

Maximum memory used throughout the entire LEANSCF-calculation: 11.9 MB


-------------------------------------------------------------------------------
                          DFT DISPERSION CORRECTION                            
                                                                               
                              DFTD3 V3.1  Rev 1                                
                          USING Becke-Johnson damping                          
-------------------------------------------------------------------------------
The B3LYP functional is recognized
Active option DFTDOPT                   ...         4   

molecular C6(AA) [au] = 2435.168304 


            DFT-D V3
 parameters
 s6 scaling factor         :     1.0000 
 a1 scaling factor         :     0.3981 
 s8 scaling factor         :     1.9889 
 a2 scaling factor         :     4.4211 
 ad hoc parameters k1-k3   :    16.0000     1.3333    -4.0000 

 Edisp/kcal,au: -15.196331350437  -0.024216892904 
 E6   /kcal   :  -7.029621316 
 E8   /kcal   :  -8.166710034 
 % E8         :  53.741326415 

-------------------------   ----------------
Dispersion correction           -0.024216893
-------------------------   ----------------


-------------------------   --------------------
FINAL SINGLE POINT ENERGY      -499.979597715162
-------------------------   --------------------



           ************************************************************
           *        Program running with 6 parallel MPI-processes     *
           *              working on a common directory               *
           ************************************************************
------------------------------------------------------------------------------
                         ORCA SCF GRADIENT CALCULATION
------------------------------------------------------------------------------

Nuc. rep. gradient        (SHARK) ... done (  0.0 sec)
HCore & Overlap gradient  (SHARK) ... done (  0.0 sec)
Split-RIJ-J gradient      (SHARK) ... done (  0.2 sec)
done (  4.3 sec)
XC gradient                       ... done (  0.8 sec)
Dispersion correction             ... done (  0.1 sec)

-------------------
DISPERSION GRADIENT
-------------------

   1   P   :   -0.000605279    0.000125327   -0.000351772
   2   H   :   -0.000141995    0.000025911   -0.000313084
   3   C   :   -0.000572945    0.000605508    0.000297406
   4   C   :   -0.000411110   -0.000563008   -0.000000824
   5   H   :    0.000357065    0.000066344    0.000249702
   6   H   :   -0.000181329    0.000277208    0.000118368
   7   H   :   -0.000189088    0.000200267    0.000148845
   8   H   :   -0.000152060   -0.000357672    0.000144348
   9   H   :   -0.000165655   -0.000249098    0.000018427
  10   H   :   -0.000141571   -0.000315588   -0.000047323
  11   H   :    0.000381636   -0.000118756    0.000198137
  12   C   :    0.000688050    0.000028192    0.000153728
  13   C   :    0.000452105    0.000130529   -0.000253583
  14   H   :    0.000271236    0.000003075    0.000079223
  15   H   :    0.000196379    0.000138925   -0.000196967
  16   H   :    0.000214560    0.000002834   -0.000244630

Difference to translation invariance:
           :   -0.0000000000    0.0000000000    0.0000000000

Difference to rotation invariance:
           :    0.0000000000   -0.0000000000   -0.0000000000

Norm of the Dispersion gradient    ...    0.0019896237
RMS gradient                       ...    0.0002871774
MAX gradient                       ...    0.0006880498

------------------
CARTESIAN GRADIENT
------------------

   1   P   :   -0.000001591    0.000108667   -0.000036237
   2   H   :    0.000021282   -0.000040874    0.000087573
   3   C   :    0.000004910   -0.000059085   -0.000116237
   4   C   :   -0.000141864   -0.000070854   -0.000066036
   5   H   :    0.000026432   -0.000033734    0.000007456
   6   H   :    0.000046114    0.000009402    0.000009847
   7   H   :    0.000072003   -0.000044049   -0.000006910
   8   H   :    0.000071810   -0.000055163    0.000052828
   9   H   :   -0.000014587    0.000028038    0.000015343
  10   H   :    0.000034899    0.000044279    0.000049693
  11   H   :   -0.000048364   -0.000045869   -0.000008029
  12   C   :   -0.000091169    0.000113696   -0.000037545
  13   C   :    0.000043168    0.000061029   -0.000021514
  14   H   :    0.000021890   -0.000018373    0.000041331
  15   H   :   -0.000032898   -0.000013839    0.000008750
  16   H   :   -0.000012035    0.000016728    0.000019687

Difference to translation invariance:
           :    0.0000000000    0.0000000000    0.0000000000

Difference to rotation invariance:
           :   -0.0000152150   -0.0000384695   -0.0000357810

Norm of the Cartesian gradient     ...    0.0003695849
RMS gradient                       ...    0.0000533450
MAX gradient                       ...    0.0001418638

-------
TIMINGS
-------

Total SCF gradient time     ....        5.415 sec

Densities                   ....       0.000 sec  (  0.0%)
One electron gradient       ....       0.042 sec  (  0.8%)
RI-J Coulomb gradient       ....       0.226 sec  (  4.2%)
COSX gradient               ....       4.268 sec  ( 78.8%)
XC gradient                 ....       0.824 sec  ( 15.2%)

Maximum memory used throughout the entire SCFGRAD-calculation: 28.4 MB


           ************************************************************
           *        Program running with 6 parallel MPI-processes     *
           *              working on a common directory               *
           ************************************************************

------------------------------------------------------------------------------
                              ORCA PROPERTY CALCULATIONS
------------------------------------------------------------------------------

GBWName                                 ... orca.gbw
Number of atoms                         ...     16
Number of basis functions               ...    129
Max core memory                         ...   4096 MB

Electric properties:
Dipole moment                           ... YES
Quadrupole moment                       ...  NO
Static polarizability (Dipole/Dipole)   ...  NO
Static polarizability (Dipole/Quad.)    ...  NO
Static polarizability (Quad./Quad.)     ...  NO
Static polarizability (Velocity)        ...  NO
Static hyperpolarizability              ...  NO

Atomic electric properties:
Dipole moment                           ...  NO
Quadrupole moment                       ...  NO
Static polarizability                   ...  NO

Choice of electric origin               ... Center of mass
Position of electric origin             ...    -0.054019     0.048865     0.144586

General magnetic properties:
Magnetizability                         ...  NO

EPR properties:
g-Tensor (aka g-matrix)                 ...  NO
Zero-Field splitting spin-orbit         ...  NO
Zero-field splitting spin-spin          ...  NO
Hyperfine couplings                     ...  NO (   0 nuclei)
Quadrupole couplings                    ...  NO (   0 nuclei)
Contact density                         ...  NO (   0 nuclei)

NMR properties:
Chemical shifts                         ...  NO (   0 nuclei)
Spin-rotation constants                 ...  NO (   0 nuclei)
Spin-spin couplings                     ...  NO (   0 nuclei,    0 pairs)

Choice of magnetic origin               ... GIAO
Position of magnetic origin             ...     0.000000     0.000000     0.000000

Properties with geometric perturbations:
SCF Hessian                             ...  NO
IR spectrum                             ...  NO
VCD spectrum                            ...  NO
X-ray spectroscopy properties:
SCF XES/XAS/RIXS spectra                ...  NO

SCF SOC stabilization energy            ...  NO
Diagonal Born-Oppenheimer correction    ...  NO

-------------
DIPOLE MOMENT
-------------

Method             : SCF
Type of density    : Electron Density
Multiplicity       :   1
Irrep              :   0
Energy             :  -499.9553808222588032 Eh
Basis              : AO
                                X                 Y                 Z
Electronic contribution:     -2.660471554       1.124900472      -1.865504534
Nuclear contribution   :      3.074048397      -1.828047707       1.306628998
                        -----------------------------------------
Total Dipole Moment    :      0.413576843      -0.703147235      -0.558875535
                        -----------------------------------------
Magnitude (a.u.)       :      0.988839574
Magnitude (Debye)      :      2.513430451



--------------------
Rotational spectrum 
--------------------
 
Rotational constants in cm-1:             0.161713             0.097379             0.079572 
Rotational constants in MHz :          4848.022056          2919.351751          2385.494519 

Dipole components along the rotational axes: 
x,y,z [a.u.] :     0.326896    -0.840792    -0.404984 
x,y,z [Debye]:     0.830903    -2.137122    -1.029388 

 

Dipole moment calculation done in   0.0 sec 

Maximum memory used throughout the entire PROP-calculation: 6.6 MB

--------------------------------
SUGGESTED CITATIONS FOR THIS RUN
--------------------------------

Below you find a list of papers that are relevant to this ORCA run
We neither can nor want to force you to cite these papers, but we appreciate if you do
You receive ORCA, which is the product of decades of hard work by many enthusiastic individuals, for free
The only thing we kindly ask in return is that you cite our papers,
We deeply appreciate it, if you show your appreciation for ORCA by not just citing the generic ORCA reference.

Please note that relegating all ORCA citations to the supporting information does *not* help us.
SI sections are not indexed - citations you put there will not count into any citation statistics
But we need these citations in order to attract the funding resources that allow us to do what we are doing

Therefore, if you are a happy ORCA user, please consider citing a few of the papers listed below in the main body of your paper

In addition to the list printed below, the program has created the file orca.bibtex that contains the list in bibtex format
You can import this file easily into all common literature databanks and citation aid programs


List of essential papers. We consider these as the minimum necessary citations

  1. Neese, F.
     Software update: the ORCA program system, version 6.0
     WIRES Comput. Molec. Sci. 2025 15(1), e70019
     doi.org/10.1002/wcms.7019

List of papers to cite with high priority. The work reported in these papers was absolutely
necessary for this run to complete.
Our perspective: the developers of density functionals and basis sets usually get cited in chemistry papers
Good! But without the algorithms to do something with them, the functionals or basis sets would not do anything.
Hence, in our opinion, the algorithm design and method developments papers are equally worthy of getting cited

  1. Neese, F.
     An improvement of the resolution of the identity approximation for the formation of the Coulomb matrix
     J. Comp. Chem. 2003 24(14), 1740-1747
     doi.org/10.1002/jcc.10318
  2. Neese, F.; Wennmohs, F.; Hansen, A.; Becker, U.
     Efficient, approximate and parallel Hartree-Fock and hybrid DFT calculations. A 'chain-of-spheres' algorithm for the Hartree-Fock exchange
     Chem. Phys. 2009 356(1-3), 98-109
     doi.org/10.1016/j.chemphys.2008.10.036
  3. Grimme, S.; Antony, J.; Ehrlich, S.; Krieg, H.
     A consistent and accurate ab initio parametrization of density functional dispersion correction (DFT-D) for the 94 elements H-Pu
     J. Chem. Phys. 2010 132 , 154104
     doi.org/10.1063/1.3382344
  4. Grimme, S.; Ehrlich, S.; Goerigk, L.
     Effect of the damping function in dispersion corrected density functional theory
     J. Comput. Chem. 2011 32(7), 1456-1465
     doi.org/10.1002/jcc.21759
  5. Helmich-Paris, B.; de Souza, B.; Neese, F.; Izsák, R.
     An improved chain of spheres for exchange algorithm
     J. Chem. Phys. 2021 155(10), 104109
     doi.org/10.1063/5.0058766
  6. Neese, F.
     The SHARK Integral Generation and Digestion System
     J. Comp. Chem. 2022 44(3), 381
     doi.org/10.1002/jcc.26942

List of suggested additional citations. These are papers that are important in the 'surrounding' of 
of this run, or papers that preceded the highly important papers. If you like your results we are grateful for a citation.

  1. Izsak, R.; Neese, F.
     An overlap fitted chain of spheres exchange method
     J. Chem. Phys. 2011 135 , 144105
     doi.org/10.1063/1.3646921
  2. Izsak, R.; Hansen, A.; Neese, F.
     The resolution of identity and chain of spheres approximations for the LPNO-CCSD singles Fock term
     Molec. Phys. 2012 110 , 2413-2417
     doi.org/10.1080/00268976.2012.687466
  3. Neese, F.
     The ORCA program system
     WIRES Comput. Molec. Sci. 2012 2(1), 73-78
     doi.org/10.1002/wcms.81
  4. Izsak, R.; Neese, F.; Klopper, W.
     Robust fitting techniques in the chain of spheres approximation to the Fock exchange: The role of the complementary space
     J. Chem. Phys. 2013 139 , 
     doi.org/10.1063/1.4819264
  5. Neese, F.
     Software update: the ORCA program system, version 4.0
     WIRES Comput. Molec. Sci. 2018 8(1), 1-6
     doi.org/10.1002/wcms.1327
  6. Neese, F.; Wennmohs, F.; Becker, U.; Riplinger, C.
     The ORCA quantum chemistry program package
     J. Chem. Phys. 2020 152(22), 224108
     doi.org/10.1063/5.0004608
  7. Neese, F.
     Software update: The ORCA program system—Version 5.0
     WIRES Comput. Molec. Sci. 2022 12(1), e1606
     doi.org/10.1002/wcms.1606

List of optional additional citations

  1. Neese, F.
     Approximate second-order SCF convergence for spin unrestricted wavefunctions
     Chem. Phys. Lett. 2000 325(1-3), 93-98
     doi.org/10.1016/s0009-2614(00)00662-x

Timings for individual modules:

Sum of individual times          ...       16.846 sec (=   0.281 min)
Startup calculation              ...        1.316 sec (=   0.022 min)   7.8 %
SCF iterations                   ...        9.159 sec (=   0.153 min)  54.4 %
Property calculations            ...        0.496 sec (=   0.008 min)   2.9 %
SCF Gradient evaluation          ...        5.874 sec (=   0.098 min)  34.9 %
                             ****ORCA TERMINATED NORMALLY****
TOTAL RUN TIME: 0 days 0 hours 0 minutes 17 seconds 407 msec
