
                                 *****************
                                 * O   R   C   A *
                                 *****************

                                            #,                                       
                                            ###                                      
                                            ####                                     
                                            #####                                    
                                            ######                                   
                                           ########,                                 
                                     ,,################,,,,,                         
                               ,,#################################,,                 
                          ,,##########################################,,             
                       ,#########################################, ''#####,          
                    ,#############################################,,   '####,        
                  ,##################################################,,,,####,       
                ,###########''''           ''''###############################       
              ,#####''   ,,,,##########,,,,          '''####'''          '####       
            ,##' ,,,,###########################,,,                        '##       
           ' ,,###''''                  '''############,,,                           
         ,,##''                                '''############,,,,        ,,,,,,###''
      ,#''                                            '''#######################'''  
     '                                                          ''''####''''         
             ,#######,   #######,   ,#######,      ##                                
            ,#'     '#,  ##    ##  ,#'     '#,    #''#        ,####,    ,#,          
            ##       ##  ##   ,#'  ##            #'  '#       #'       ,# #          
            ##       ##  #######   ##           ,######,      #####,      #          
            '#,     ,#'  ##    ##  '#,     ,#' ,#      #,     #,   #      #          
             '#######'   ##     ##  '#######'  #'      '#     '####' #    #          



                #########################################################
                #                        -***-                          #
                #          Department of theory and spectroscopy        #
                #                                                       #
                #                      Frank Neese                      #
                #                                                       #
                #     Directorship, Architecture, Infrastructure        #
                #                    SHARK, DRIVERS                     #
                #        Core code/Algorithms in most modules           #
                #                                                       #
                #        Max Planck Institute fuer Kohlenforschung      #
                #                Kaiser Wilhelm Platz 1                 #
                #                 D-45470 Muelheim/Ruhr                 #
                #                      Germany                          #
                #                                                       #
                #                  All rights reserved                  #
                #                        -***-                          #
                #########################################################


                         Program Version 6.1.0  -  RELEASE   -
                                (GIT: $679e74b$)
                          ($2025-06-10 18:02:51 +0200$)


 With contributions from (in alphabetic order):
[Max-Planck-Institut fuer Kohlenforschung]                               
  Daniel Aravena         : Magnetic Suceptibility                        
  Michael Atanasov       : Ab Initio Ligand Field Theory (pilot matlab implementation)
  Alexander A. Auer      : GIAO ZORA, VPT2 properties, NMR spectrum      
  Ute Becker             : All parallelization in ORCA, NUMFREQ, NUMCALC 
  Giovanni Bistoni       : ED, misc. LED, open-shell LED, HFLD           
  Dmytro Bykov           : pre 5.0 version of the SCF Hessian            
  Marcos Casanova-Páez   : Triplet and SCS-CIS(D). UHF-(DLPNO)-IP/EA/STEOM-CCSD. UHF-CVS-IP/STEOM-CCSD   
  Vijay G. Chilkuri      : MRCI spin determinant printing, contributions to CSF-ICE 
  Pauline Colinet        : FMM embedding                                 
  Dipayan Datta          : RHF DLPNO-CCSD density                        
  Achintya Kumar Dutta   : EOM-CC, STEOM-CC                              
  Nicolas Foglia         : Exact transition moments, OPA infrastructure, MCD improvements    
  Dmitry Ganyushin       : Spin-Orbit,Spin-Spin,Magnetic field MRCI      
  Miquel Garcia-Rates    : C-PCM and meta-GGA Hessian, CCSD/C-PCM, Gaussian charge scheme 
  Tiago L. C. Gouveia    : GS-ROHF, GS-ROCIS                             
  Yang Guo               : DLPNO-NEVPT2, F12-NEVPT2, CIM, IAO-localization        
  Andreas Hansen         : Spin unrestricted coupled pair/coupled cluster methods 
  Ingolf Harden          : AUTO-CI MPn and infrastructure                
  Benjamin Helmich-Paris : MC-RPA, TRAH-(SCF,CASSCF), AVAS, COSX integrals, SCF dyn. polar., MC-PDFT, srDFT 
  Lee Huntington         : MR-EOM, pCC                                   
  Robert Izsak           : Overlap fitted RIJCOSX, COSX-SCS-MP3, EOM     
  Riya Kayal             : Wick's Theorem for AUTO-CI, AUTO-CI UHF-CCSDT 
  Emily Kempfer          : AUTO-CI RHF CISDT and CCSDT, approximate NEVPT4
  Christian Kollmar      : KDIIS, OOCD, Brueckner-CCSD(T), CCSD density, CASPT2, CASPT2-K, improved NEVPT2 
  Axel Koslowski         : Symmetry handling                             
  Simone Kossmann        : meta-GGA functionals, TD-DFT gradient, OOMP2, (MP2 Hessian; deprecated post 5.0) 
  Lucas Lang             : DCDCAS, Hyperfine gauge corrections, ICE-SOC+SSC
  Marvin Lechner         : AUTO-CI (C++ implementation), FIC-MRCC        
  Spencer Leger          : CASSCF response                               
  Dagmar Lenk            : GEPOL surface, SMD, ORCA-2-JSON               
  Dimitrios Liakos       : Extrapolation schemes; Compound Job, Property file
  Dimitrios Manganas     : Further ROCIS development; embedding schemes. LFT, Crystal Embedding 
  Dimitrios Pantazis     : SARC Basis sets                               
  Anastasios Papadopoulos: AUTO-CI, single reference methods and gradients 
  Taras Petrenko         : pre 6.0 DFT Hessian and TD-DFT gradient,  ECA, NRVS 
  Petra Pikulova         : Analytic Raman intensities                    
  Peter Pinski           : DLPNO-MP2, DLPNO-MP2 Gradient                 
  Shashank Vittal Rao    : ES-AILFT, MagRelax                            
  Christoph Reimann      : Effective Core Potentials                     
  Marius Retegan         : Local ZFS, SOC                                
  Christoph Riplinger    : Optimizer, TS searches, QM/MM, DLPNO-CCSD(T), (RO)-DLPNO pert. Triples 
  Michael Roemelt        : Original ROCIS implementation, recursive CI coupling coefficients
  Masaaki Saitow         : Open-shell DLPNO-CCSD energy and density      
  Barbara Sandhoefer     : DKH picture change effects                    
  Yorick L. A. Schmerwitz: GMF and freeze-and-release deltaSCF, NEB S-IDPP initial path                    
  Kantharuban Sivalingam : CASSCF convergence/infrastructure, NEVPT2, NEVPT3, NEVPT4(SD), FIC-MRCI and CEPA variants
  Bernardo de Souza      : ESD, SOC TD-DFT                               
  Georgi L. Stoychev     : AutoAux, RI-MP2 NMR, DLPNO-MP2 response, X2C  
  Van Anh Tran           : RI-MP2 g-tensors                              
  Willem Van den Heuvel  : Paramagnetic NMR                              
  Zikuan Wang            : NOTCH, Electric field optimization            
  Frank Wennmohs         : Technical directorship and infrastructure     
  Hang Xu                : AUTO-CI-Response properties                   
                                                                         
[FACCTs GmbH]                                                            
  Markus Bursch, Nicolas Foglia, Miquel Garcia-Rates, Ingolf Harden, Hagen Neugebauer, Anastasios Papadopoulos, 
  Christoph Riplinger, Bernardo de Souza, Georgi L. Stoychev                                                    
                                                                 
  APM, various basis sets, CI-OPT, improved COSX, DLPNO-Multilevel,           
  DOCKER, DRACO, updates on ESD, Fragmentator, GOAT, IRC, LR-CPCM, L-BFGS, MBIS, meta-GGA TD-DFT gradient, ML-optimized integration grids, 
  MM, NACMEs, nearIR, NEB, NEB-TS, NL-DFT gradient (VV10), 2- and 3-layer-ONIOM, interface openCOSMO-RS, QMMM,   
  Crystal-QMMM, RESP, rigid body optimization, SF, symmetry and pop. for TD-DFT, various functionals, SOLVATOR                                   
                                                                         
[Other institutions]                                                     
  V. Asgeirsson          : NEB                                           
  Christoph Bannwarth    : sTDA-DFT, sTD-DFT, PBEh-3c, B97-3c, D3        
  Giovanni Bistoni       : ETS/NOCV, ADLD/ADEX, COVALED                  
  Martin Brehm           : Molecular dynamics                            
  Ronald Cardenas        : ETS/NOCV                                      
  Martina Colucci        : COVALED                                       
  Sebastian Ehlert       : rSCAN, r2SCAN, r2SCAN-3c, D4, dhf basis sets  
  Marvin Friede          : D4 for Fr, Ra, Ac-Lr                          
  Lars Goerigk           : TD-DFT with DH, B97 family of functionals     
  Stefan Grimme          : VdW corrections, initial TS optimization, DFT functionals, gCP, sTDA/sTD-DF 
  Waldemar Hujo          : DFT-NL                                        
  H. Jonsson             : NEB                                           
  Holger Kruse           : gCP                                           
  Marcel Mueller         : wB97X-3c, vDZP basis set                      
  Hagen Neugebauer       : wr2SCAN, Native XTB                           
  Gianluca Regni         : ADLD/ADEX                                     
  Tobias Risthaus        : pre 6.0 range-separated hybrid DFT and stability analysis
  Lukas Wittmann         : regularized MP2, r2SCAN double-hybrids, wr2SCAN        
                                                                         
We gratefully acknowledge several colleagues who have allowed us to      
interface, adapt or use parts of their codes:                            
  Ed Valeev, F. Pavosevic, A. Kumar             : LibInt (2-el integral package), F12 methods 
  Garnet Chan, S. Sharma, J. Yang, R. Olivares  : DMRG                   
  Ulf Ekstrom                                   : XCFun DFT Library      
  Mihaly Kallay                                 : mrcc  (arbitrary order and MRCC methods)
  Frank Weinhold                                : gennbo (NPA and NBO analysis)           
  Simon Mueller                                 : openCOSMO-RS                            
  Christopher J. Cramer and Donald G. Truhlar   : smd solvation model                     
  S Lehtola, MJT Oliveira, MAL Marques          : LibXC Library                           
  Liviu Ungur et al                             : ANISO software                          


 Your calculation uses the libint2 library for the computation of 2-el integrals
 For citations please refer to: http://libint.valeyev.net

 Your ORCA version has been built with support for libXC version: 7.0.0
 For citations please refer to: https://libxc.gitlab.io

 This ORCA versions uses:
   CBLAS   interface :  Fast vector & matrix operations
   LAPACKE interface :  Fast linear algebra routines
   SCALAPACK package :  Parallel linear algebra routines
   Shared memory     :  Shared parallel matrices
   BLAS/LAPACK       :  OpenBLAS 0.3.29  USE64BITINT DYNAMIC_ARCH NO_AFFINITY Zen SINGLE_THREADED
        Core in use  :  Zen
   Copyright (c) 2011-2014, The OpenBLAS Project


  ***********************************
  * Starting time: Wed Sep 10 13:36:51 2025
  * Host name:     wyk-Server
  * Process ID:    2302493
  * Working dir.:  /home/wyk/Documents/code/openQDC/MGMR/singlepointcalc/81/sp
  ***********************************

Your calculation utilizes the atom-pairwise dispersion correction
with the Becke-Johnson damping scheme (D3BJ)


Warning: RI is on but no J-basis has been assigned. Assigning Def2/J (nothing to worry about!)
================================================================================

----- Orbital basis set information -----
Your calculation utilizes the basis: def2-SVP
   F. Weigend and R. Ahlrichs, Phys. Chem. Chem. Phys. 7, 3297 (2005).

----- AuxJ basis set information -----
Your calculation utilizes the auxiliary basis: def2/J
   H-Rn: F. Weigend, Phys. Chem. Chem. Phys. 8, 1057 (2006).
   Fr-Lr: K. Eichkorn, F. Weigend, O. Treutler, R. Ahlrichs; Theor. Chem. Acc. 97, 119 (1997).

================================================================================
                                        WARNINGS
                       Please study these warnings very carefully!
================================================================================


================================================================================
                                       INPUT FILE
================================================================================
NAME = orca.inp
|  1> ! B3LYP def2-SVP d3 EnGrad 
|  2> %pal nprocs 6 end 
|  3> *xyz 0 1 
|  4> C   -1.90356301538692 -1.67438856692375 -0.47139178410326
|  5> C   -1.14354382842961 -0.59784144402874 -0.27716679086846
|  6> C   -1.16830032417284 0.70421187209988 0.23599347082908
|  7> C   -0.14913560001067 1.08465867368082 1.12241746789593
|  8> C   1.56102163136032 0.84636973340616 0.08590632451867
|  9> C   1.54326854258435 -0.37975457014704 -0.61630113563793
| 10> H   0.08328514196281 -0.72323645936167 -0.60040655218564
| 11> H   -2.91140671692252 -1.74921369906879 -0.04956551814986
| 12> H   -1.53705433000076 -2.53215642468487 -1.04375094009425
| 13> H   1.54652436266485 1.7685871764275 -0.5030536715591
| 14> H   2.17993847526531 0.91554925247219 0.98484519208541
| 15> H   1.97929915364385 -1.27036678049553 -0.15142438379396
| 16> H   1.56266046693397 -0.37216096564894 -1.71083744299236
| 17> H   -0.09878161533083 2.12994004579543 1.4446963998068
| 18> H   0.13348717556777 0.36791708777854 1.90014670560484
| 19> H   -1.67769951972907 1.4818850686988 -0.35010734135592
| 20> *
| 21> 
| 22>                          ****END OF INPUT****
================================================================================

                     *******************************
                     * Energy+Gradient Calculation *
                     *******************************

---------------------------------
CARTESIAN COORDINATES (ANGSTROEM)
---------------------------------
  C     -1.903563   -1.674389   -0.471392
  C     -1.143544   -0.597841   -0.277167
  C     -1.168300    0.704212    0.235993
  C     -0.149136    1.084659    1.122417
  C      1.561022    0.846370    0.085906
  C      1.543269   -0.379755   -0.616301
  H      0.083285   -0.723236   -0.600407
  H     -2.911407   -1.749214   -0.049566
  H     -1.537054   -2.532156   -1.043751
  H      1.546524    1.768587   -0.503054
  H      2.179938    0.915549    0.984845
  H      1.979299   -1.270367   -0.151424
  H      1.562660   -0.372161   -1.710837
  H     -0.098782    2.129940    1.444696
  H      0.133487    0.367917    1.900147
  H     -1.677700    1.481885   -0.350107

----------------------------
CARTESIAN COORDINATES (A.U.)
----------------------------
  NO LB      ZA    FRAG     MASS         X           Y           Z
   0 C     6.0000    0    12.011   -3.597213   -3.164136   -0.890801
   1 C     6.0000    0    12.011   -2.160985   -1.129757   -0.523769
   2 C     6.0000    0    12.011   -2.207768    1.330768    0.445963
   3 C     6.0000    0    12.011   -0.281825    2.049708    2.121062
   4 C     6.0000    0    12.011    2.949903    1.599407    0.162339
   5 C     6.0000    0    12.011    2.916355   -0.717632   -1.164640
   6 H     1.0000    0     1.008    0.157386   -1.366719   -1.134604
   7 H     1.0000    0     1.008   -5.501761   -3.305535   -0.093665
   8 H     1.0000    0     1.008   -2.904612   -4.785082   -1.972403
   9 H     1.0000    0     1.008    2.922508    3.342145   -0.950634
  10 H     1.0000    0     1.008    4.119487    1.730137    1.861088
  11 H     1.0000    0     1.008    3.740333   -2.400645   -0.286151
  12 H     1.0000    0     1.008    2.953000   -0.703282   -3.233014
  13 H     1.0000    0     1.008   -0.186670    4.025003    2.730081
  14 H     1.0000    0     1.008    0.252254    0.695263    3.590757
  15 H     1.0000    0     1.008   -3.170393    2.800357   -0.661607

--------------------------------
INTERNAL COORDINATES (ANGSTROEM)
--------------------------------
 C      0   0   0     0.000000000000     0.00000000     0.00000000
 C      1   0   0     1.332030863139     0.00000000     0.00000000
 C      2   1   0     1.399746111375   142.67012111     0.00000000
 C      3   2   1     1.403276168965   118.09447146   131.02712480
 C      4   3   2     2.013895410743   105.04306130    59.21832174
 C      5   4   3     1.413078659178   110.35046013   315.74593023
 H      2   1   3     1.274879278897   115.63292445   176.09443264
 H      1   2   3     1.095118772451   121.61148887   351.47482095
 H      1   2   3     1.094389929467   121.24047607   172.76693806
 H      5   4   3     1.094334985273    99.55726447    80.07104643
 H      5   4   3     1.093588109459    92.86811067   194.34538607
 H      6   5   4     1.095181810207   119.31965495   266.80595193
 H      6   5   4     1.094734414219   119.38023640   116.00378732
 H      4   3   2     1.094994237709   118.56266408   173.55017242
 H      4   3   2     1.094740563524   117.30700216   316.56201584
 H      3   2   1     1.098989218867   118.09404285   285.70281318

---------------------------
INTERNAL COORDINATES (A.U.)
---------------------------
 C      0   0   0     0.000000000000     0.00000000     0.00000000
 C      1   0   0     2.517173533263     0.00000000     0.00000000
 C      2   1   0     2.645136807519   142.67012111     0.00000000
 C      3   2   1     2.651807649602   118.09447146   131.02712480
 C      4   3   2     3.805710788666   105.04306130    59.21832174
 C      5   4   3     2.670331671535   110.35046013   315.74593023
 H      2   1   3     2.409172690926   115.63292445   176.09443264
 H      1   2   3     2.069474564048   121.61148887   351.47482095
 H      1   2   3     2.068097250414   121.24047607   172.76693806
 H      5   4   3     2.067993420935    99.55726447    80.07104643
 H      5   4   3     2.066582030190    92.86811067   194.34538607
 H      6   5   4     2.069593688143   119.31965495   266.80595193
 H      6   5   4     2.068748232253   119.38023640   116.00378732
 H      4   3   2     2.069239227492   118.56266408   173.55017242
 H      4   3   2     2.068759852755   117.30700216   316.56201584
 H      3   2   1     2.076788647790   118.09404285   285.70281318

---------------------
BASIS SET INFORMATION
---------------------
There are 2 groups of distinct atoms

 Group   1 Type C   : 7s4p1d contracted to 3s2p1d pattern {511/31/1}
 Group   2 Type H   : 4s1p contracted to 2s1p pattern {31/1}

Atom   0C    basis set group =>   1
Atom   1C    basis set group =>   1
Atom   2C    basis set group =>   1
Atom   3C    basis set group =>   1
Atom   4C    basis set group =>   1
Atom   5C    basis set group =>   1
Atom   6H    basis set group =>   2
Atom   7H    basis set group =>   2
Atom   8H    basis set group =>   2
Atom   9H    basis set group =>   2
Atom  10H    basis set group =>   2
Atom  11H    basis set group =>   2
Atom  12H    basis set group =>   2
Atom  13H    basis set group =>   2
Atom  14H    basis set group =>   2
Atom  15H    basis set group =>   2
---------------------------------
AUXILIARY/J BASIS SET INFORMATION
---------------------------------
There are 2 groups of distinct atoms

 Group   1 Type C   : 12s5p4d2f1g contracted to 6s4p3d1f1g pattern {711111/2111/211/2/1}
 Group   2 Type H   : 5s2p1d contracted to 3s1p1d pattern {311/2/1}

Atom   0C    basis set group =>   1
Atom   1C    basis set group =>   1
Atom   2C    basis set group =>   1
Atom   3C    basis set group =>   1
Atom   4C    basis set group =>   1
Atom   5C    basis set group =>   1
Atom   6H    basis set group =>   2
Atom   7H    basis set group =>   2
Atom   8H    basis set group =>   2
Atom   9H    basis set group =>   2
Atom  10H    basis set group =>   2
Atom  11H    basis set group =>   2
Atom  12H    basis set group =>   2
Atom  13H    basis set group =>   2
Atom  14H    basis set group =>   2
Atom  15H    basis set group =>   2


           ************************************************************
           *        Program running with 6 parallel MPI-processes     *
           *              working on a common directory               *
           ************************************************************
------------------------------------------------------------------------------
                             ORCA STARTUP CALCULATIONS
                           -- RI-GTO INTEGRALS CHOSEN --
------------------------------------------------------------------------------
------------------------------------------------------------------------------
                   ___                                                        
                  /   \      - P O W E R E D   B Y -                         
                 /     \                                                     
                 |  |  |   _    _      __       _____    __    __             
                 |  |  |  | |  | |    /  \     |  _  \  |  |  /  |          
                  \  \/   | |  | |   /    \    | | | |  |  | /  /          
                 / \  \   | |__| |  /  /\  \   | |_| |  |  |/  /          
                |  |  |   |  __  | /  /__\  \  |    /   |      \           
                |  |  |   | |  | | |   __   |  |    \   |  |\   \          
                \     /   | |  | | |  |  |  |  | |\  \  |  | \   \       
                 \___/    |_|  |_| |__|  |__|  |_| \__\ |__|  \__/        
                                                                              
                      - O R C A' S   B I G   F R I E N D -                    
                                      &                                       
                       - I N T E G R A L  F E E D E R -                       
                                                                              
 v1 FN, 2020, v2 2021, v3 2022-2024                                           
------------------------------------------------------------------------------


----------------------
SHARK INTEGRAL PACKAGE
----------------------

Number of atoms                             ...     16
Number of basis functions                   ...    134
Number of shells                            ...     66
Maximum angular momentum                    ...      2
Integral batch strategy                     ... SHARK/LIBINT Hybrid
RI-J (if used) integral strategy            ... SPLIT-RIJ (Revised 2003 algorithm where possible)
Printlevel                                  ...      1
Contraction scheme used                     ... SEGMENTED contraction
Prescreening option                         ... SCHWARTZ
   Thresh                                   ... 2.500e-11
   Tcut                                     ... 2.500e-12
   Tpresel                                  ... 2.500e-12 
Coulomb Range Separation                    ... NOT USED
Exchange Range Separation                   ... NOT USED
Multipole approximations                    ... NOT USED
Finite Nucleus Model                        ... NOT USED
CABS basis                                  ... NOT available
Auxiliary Coulomb fitting basis             ... AVAILABLE
   # of basis functions in Aux-J            ...    404
   # of shells in Aux-J                     ...    140
   Maximum angular momentum in Aux-J        ...      4
Auxiliary J/K fitting basis                 ... NOT available
Auxiliary Correlation fitting basis         ... NOT available
Auxiliary 'external' fitting basis          ... NOT available

Checking pre-screening integrals            ... done (  0.0 sec) Dimension = 66
   => SHARK Basis and OBASIS are compatible. Storing Pre-screening
Shell pair information
Shell pair cut-off parameter TPreSel        ...   2.5e-12
Total number of shell pairs                 ...      2211
Shell pairs after pre-screening             ...      2141
Total number of primitive shell pairs       ...      7611
Primitive shell pairs kept                  ...      5699
          la=0 lb=0:    722 shell pairs
          la=1 lb=0:    804 shell pairs
          la=1 lb=1:    244 shell pairs
          la=2 lb=0:    222 shell pairs
          la=2 lb=1:    128 shell pairs
          la=2 lb=2:     21 shell pairs

Checking whether 4 symmetric matrices of dimension 134 fit in memory
:Max Core in MB      =   4096.00
 MB in use           =      6.04
 MB left             =   4089.96
 MB needed           =      0.28
 Data fit in memory  = YES
Calculating RI/J V-Matrix + Cholesky decomp.... done (  0.0 sec)
Calculating Nuclear repulsion               ... done (  0.0 sec) ENN=    218.458241946885 Eh

Diagonalization of the overlap matrix:
Smallest eigenvalue                        ... 1.727e-03
Time for diagonalization                   ...    0.002 sec
Threshold for overlap eigenvalues          ... 1.000e-07
Number of eigenvalues below threshold      ... 0
Time for construction of square roots      ...    0.001 sec
Total time needed                          ...    0.004 sec

-------------------
DFT GRID GENERATION
-------------------

General Integration Accuracy     IntAcc      ... 4.388
Radial Grid Type                 RadialGrid  ... OptM3 with GC (2021)
Angular Grid (max. ang.)         AngularGrid ... 4 (Lebedev-302)
Angular grid pruning method      GridPruning ... 4 (adaptive)
Weight generation scheme         WeightScheme... mBecke (2022)
Basis function cutoff            BFCut       ... 1.0000e-11
Integration weight cutoff        WCut        ... 1.0000e-14
Partially contracted basis set               ... off
Rotationally invariant grid construction     ... off
Angular grids for H and He will be reduced by one unit

Total number of grid points                  ...    68361
Total number of batches                      ...     1076
Average number of points per batch           ...       63
Average number of grid points per atom       ...     4273

--------------------
COSX GRID GENERATION
--------------------

GRIDX 1
-------
General Integration Accuracy     IntAcc      ... 3.816
Radial Grid Type                 RadialGrid  ... OptM3 with GC (2021)
Angular Grid (max. ang.)         AngularGrid ... 1 (Lebedev-50)
Angular grid pruning method      GridPruning ... 4 (adaptive)
Weight generation scheme         WeightScheme... mBecke (2022)
Basis function cutoff            BFCut       ... 1.0000e-11
Integration weight cutoff        WCut        ... 1.0000e-14
Partially contracted basis set               ... on
Rotationally invariant grid construction     ... off
Angular grids for H and He will be reduced by one unit

Total number of grid points                  ...     8793
Total number of batches                      ...       78
Average number of points per batch           ...      112
Average number of grid points per atom       ...      550
UseSFitting                                  ... on

GRIDX 2
-------
General Integration Accuracy     IntAcc      ... 4.020
Radial Grid Type                 RadialGrid  ... OptM3 with GC (2021)
Angular Grid (max. ang.)         AngularGrid ... 2 (Lebedev-110)
Angular grid pruning method      GridPruning ... 4 (adaptive)
Weight generation scheme         WeightScheme... mBecke (2022)
Basis function cutoff            BFCut       ... 1.0000e-11
Integration weight cutoff        WCut        ... 1.0000e-14
Partially contracted basis set               ... on
Rotationally invariant grid construction     ... off
Angular grids for H and He will be reduced by one unit

Total number of grid points                  ...    18469
Total number of batches                      ...      151
Average number of points per batch           ...      122
Average number of grid points per atom       ...     1154
UseSFitting                                  ... on

GRIDX 3
-------
General Integration Accuracy     IntAcc      ... 4.338
Radial Grid Type                 RadialGrid  ... OptM3 with GC (2021)
Angular Grid (max. ang.)         AngularGrid ... 3 (Lebedev-194)
Angular grid pruning method      GridPruning ... 4 (adaptive)
Weight generation scheme         WeightScheme... mBecke (2022)
Basis function cutoff            BFCut       ... 1.0000e-11
Integration weight cutoff        WCut        ... 1.0000e-14
Partially contracted basis set               ... on
Rotationally invariant grid construction     ... off
Angular grids for H and He will be reduced by one unit

Total number of grid points                  ...    40333
Total number of batches                      ...      323
Average number of points per batch           ...      124
Average number of grid points per atom       ...     2521
UseSFitting                                  ... on
Grids setup in   0.9 sec
Initializing property integral containers    ... done (  0.0 sec)

SHARK setup successfully completed in   1.0 seconds

Maximum memory used throughout the entire STARTUP-calculation: 18.2 MB


           ************************************************************
           *        Program running with 6 parallel MPI-processes     *
           *              working on a common directory               *
           ************************************************************
-------------------------------------------------------------------------------
                                 ORCA GUESS
                   Start orbitals & Density for SCF / CASSCF
-------------------------------------------------------------------------------

------------
SCF SETTINGS
------------
Hamiltonian:
 Density Functional     Method          .... DFT(GTOs)
 Exchange Functional    Exchange        .... B88
   X-Alpha parameter    XAlpha          ....  0.666667
   Becke's b parameter  XBeta           ....  0.004200
 Correlation Functional Correlation     .... LYP
 LDA part of GGA corr.  LDAOpt          .... VWN-5
 Gradients option       PostSCFGGA      .... off
 Hybrid DFT is turned on
   Fraction HF Exchange ScalHFX         ....  0.200000
   Scaling of DF-GGA-X  ScalDFX         ....  0.720000
   Scaling of DF-GGA-C  ScalDFC         ....  0.810000
   Scaling of DF-LDA-C  ScalLDAC        ....  1.000000
   Perturbative correction              ....  0.000000
   NL short-range parameter             ....  4.800000
 RI-approximation to the Coulomb term is turned on
   Number of AuxJ basis functions       .... 404
   RIJ-COSX (HFX calculated with COS-X)).... on


General Settings:
 Integral files         IntName         .... orca
 Hartree-Fock type      HFTyp           .... RHF
 Total Charge           Charge          ....    0
 Multiplicity           Mult            ....    1
 Number of Electrons    NEL             ....   46
 Basis Dimension        Dim             ....  134
 Nuclear Repulsion      ENuc            ....    218.4582419469 Eh

Convergence Acceleration:
 AO-DIIS                CNVDIIS         .... on
   Start iteration      DIISMaxIt       ....    12
   Startup error        DIISStart       ....  0.200000
   # of expansion vecs  DIISMaxEq       ....     5
   Bias factor          DIISBfac        ....   1.050
   Max. coefficient     DIISMaxC        ....  10.000
 MO-DIIS                CNVKDIIS        .... off
 Trust-Rad. Augm. Hess. CNVTRAH         .... auto
   Auto Start mean grad. ratio tolernc. ....  1.125000
   Auto Start start iteration           ....    50
   Auto Start num. interpolation iter.  ....    10
   Max. Number of Micro iterations      ....    24
   Max. Number of Macro iterations      .... Maxiter - #DIIS iter
   Number of Davidson start vectors     ....     2
   Converg. threshold    (grad. norm)   ....   1.000e-05
   Grad. Scal. Fac. for Micro threshold ....   0.100
   Minimum threshold for Micro iter.    ....   1.000e-02
   NR start threshold (gradient norm)   ....   1.000e-04
   Initial trust radius                 ....   0.400
   Minimum AH scaling param. (alpha)    ....   1.000
   Maximum AH scaling param. (alpha)    .... 1000.000
   Quad. conv. algorithm                .... NR
   White noise on init. David. guess    .... on
   Maximum white noise                  ....   0.010
   Pseudo random numbers                .... off
   Inactive MOs                         .... canonical
   Orbital update algorithm             .... Taylor
   Preconditioner                       .... Diag
   Full preconditioner red. dimension   ....   250
 SOSCF                 CNVSOSCF           .... on
   Start iteration     SOSCFMaxIt         ....   150
   Startup grad/error  SOSCFStart         ....  0.003300
   Hessian update      SOSCFHessUp        .... L-BFGS
   Autom. constraints  SOSCFAutoConstrain .... off
 Level Shifting         CNVShift        .... on
   Level shift para.    LevelShift      ....    0.2500
   Turn off err/grad.   ShiftErr        ....    0.0010
 Zerner damping         CNVZerner       .... off
 Static damping         CNVDamp         .... on
   Fraction old density DampFac         ....    0.7000
   Max. Damping (<1)    DampMax         ....    0.9800
   Min. Damping (>=0)   DampMin         ....    0.0000
   Turn off err/grad.   DampErr         ....    0.1000

SCF Procedure:
 Maximum # iterations   MaxIter         ....   125
 SCF integral mode      SCFMode         .... Direct
   Integral package                     .... SHARK and LIBINT hybrid scheme
 Reset frequency        DirectResetFreq ....    20
 Integral Threshold     Thresh          ....  2.500e-11 Eh
 Primitive CutOff       TCut            ....  2.500e-12 Eh

Convergence Tolerance:
 Convergence Check Mode ConvCheckMode   .... Total+1el-Energy
 Convergence forced     ConvForced      .... 0
 Energy Change          TolE            ....  1.000e-08 Eh
 1-El. energy change                    ....  1.000e-05 Eh
 Orbital Gradient       TolG            ....  1.000e-05
 Orbital Rotation angle TolX            ....  1.000e-05
 DIIS Error             TolErr          ....  5.000e-07

------------------------------
INITIAL GUESS: MODEL POTENTIAL
------------------------------
Loading Hartree-Fock densities                     ... done
Calculating cut-offs                               ... done
Initializing the effective Hamiltonian             ... done
Setting up the integral package (SHARK)            ... done
Starting the Coulomb interaction                   ... done (   0.0 sec)
Making the grid                                    ... done (   0.1 sec)
Mapping shells                                     ... done
Starting the XC term evaluation                    ... done (   0.0 sec)
  promolecular density results
     # of electrons  =     45.995314938
     EX              =    -33.722914947
     EC              =     -1.464666416
     EX+EC           =    -35.187581363
Transforming the Hamiltonian                       ... done (   0.0 sec)
Diagonalizing the Hamiltonian                      ... done (   0.0 sec)
Back transforming the eigenvectors                 ... done (   0.0 sec)
Now organizing SCF variables                       ... done
                      ------------------
                      INITIAL GUESS DONE (   0.2 sec)
                      ------------------
             **** ENERGY FILE WAS UPDATED (orca.en.tmp) ****
Finished Guess after   0.3 sec
Maximum memory used throughout the entire GUESS-calculation: 8.6 MB


           ************************************************************
           *        Program running with 6 parallel MPI-processes     *
           *              working on a common directory               *
           ************************************************************

-------------------------------------------------------------------------------------------
                                      ORCA LEAN-SCF
                              memory conserving SCF solver
-------------------------------------------------------------------------------------------

----------------------------------------D-I-I-S--------------------------------------------
Iteration    Energy (Eh)           Delta-E    RMSDP     MaxDP     DIISErr   Damp  Time(sec)
-------------------------------------------------------------------------------------------
               ***  Starting incremental Fock matrix formation  ***
    1    -234.0152285409629940     0.00e+00  7.93e-03  6.98e-02  1.40e-01  0.700   0.8
    2    -234.0883858386837915    -7.32e-02  5.81e-03  4.39e-02  7.51e-02  0.700   0.5
                               ***Turning on AO-DIIS***
    3    -234.1207740619269089    -3.24e-02  2.44e-03  1.39e-02  3.32e-02  0.700   0.5
    4    -234.1391872546748800    -1.84e-02  4.45e-03  2.27e-02  1.75e-02  0.000   0.5
    5    -234.1782054005701070    -3.90e-02  6.46e-04  3.86e-03  5.37e-03  0.000   0.5
                              *** Initializing SOSCF ***
---------------------------------------S-O-S-C-F--------------------------------------
Iteration    Energy (Eh)           Delta-E    RMSDP     MaxDP     MaxGrad    Time(sec)
--------------------------------------------------------------------------------------
    6    -234.1784040985288584    -1.99e-04  2.56e-04  1.21e-03  1.56e-03     0.5
               *** Restarting incremental Fock matrix formation ***
    7    -234.1784029407409662     1.16e-06  1.69e-04  1.10e-03  1.74e-04     0.8
    8    -234.1784023145223728     6.26e-07  6.84e-05  6.04e-04  3.58e-04     0.7
    9    -234.1784045878987968    -2.27e-06  4.30e-05  3.58e-04  9.51e-05     0.6
   10    -234.1784044845911126     1.03e-07  2.24e-05  2.10e-04  8.96e-05     0.6
   11    -234.1784047231980708    -2.39e-07  1.10e-05  6.55e-05  1.92e-05     0.6
   12    -234.1784047112530516     1.19e-08  6.87e-06  4.38e-05  2.42e-05     0.6
   13    -234.1784047314758368    -2.02e-08  1.23e-06  9.45e-06  2.18e-06     0.5
                  *** Gradient check signals convergence ***

               *****************************************************
               *                     SUCCESS                       *
               *           SCF CONVERGED AFTER  13 CYCLES          *
               *****************************************************

Recomputing exchange energy using gridx3       ... done (    1.225 sec)
Old exchange energy                            :     -6.878679434 Eh
New exchange energy                            :     -6.878677171 Eh
Exchange energy change after final integration :      0.000002262 Eh
Total energy after final integration           :   -234.178402467 Eh
             **** ENERGY FILE WAS UPDATED (orca.en.tmp) ****

----------------
TOTAL SCF ENERGY
----------------

Total Energy       :       -234.17840246668101 Eh           -6372.31829 eV

Components:
Nuclear Repulsion  :        218.45824194688538 Eh            5944.55098 eV
Electronic Energy  :       -452.63664667585982 Eh          -12316.86933 eV
One Electron Energy:       -746.18665919848945 Eh          -20304.77127 eV
Two Electron Energy:        293.55001252262963 Eh            7987.90194 eV

Virial components:
Potential Energy   :       -465.52565024555588 Eh          -12667.59695 eV
Kinetic Energy     :        231.34724777887490 Eh            6295.27866 eV
Virial Ratio       :          2.01223768475738

DFT components:
N(Alpha)           :       22.999944550095 electrons
N(Beta)            :       22.999944550095 electrons
N(Total)           :       45.999889100190 electrons
E(X)               :      -27.309771321106 Eh       
E(C)               :       -1.741965466362 Eh       
E(XC)              :      -29.051736787469 Eh       

---------------
SCF CONVERGENCE
---------------

  Last Energy change         ...    2.0223e-08  Tolerance :   1.0000e-08
  Last MAX-Density change    ...    9.4500e-06  Tolerance :   1.0000e-07
  Last RMS-Density change    ...    1.2294e-06  Tolerance :   5.0000e-09
  Last DIIS Error            ...    1.5636e-03  Tolerance :   5.0000e-07
  Last Orbital Gradient      ...    2.1794e-06  Tolerance :   1.0000e-05
  Last Orbital Rotation      ...    8.1878e-06  Tolerance :   1.0000e-05


----------------
ORBITAL ENERGIES
----------------

  NO   OCC          E(Eh)            E(eV) 
   0   2.0000     -10.195418      -277.4314 
   1   2.0000     -10.194775      -277.4139 
   2   2.0000     -10.186855      -277.1984 
   3   2.0000     -10.183520      -277.1077 
   4   2.0000     -10.180952      -277.0378 
   5   2.0000     -10.180813      -277.0340 
   6   2.0000      -0.801220       -21.8023 
   7   2.0000      -0.742313       -20.1994 
   8   2.0000      -0.713785       -19.4231 
   9   2.0000      -0.620203       -16.8766 
  10   2.0000      -0.568863       -15.4796 
  11   2.0000      -0.518850       -14.1186 
  12   2.0000      -0.466317       -12.6891 
  13   2.0000      -0.458343       -12.4722 
  14   2.0000      -0.442785       -12.0488 
  15   2.0000      -0.414683       -11.2841 
  16   2.0000      -0.400196       -10.8899 
  17   2.0000      -0.387621       -10.5477 
  18   2.0000      -0.355222        -9.6661 
  19   2.0000      -0.348285        -9.4773 
  20   2.0000      -0.290274        -7.8988 
  21   2.0000      -0.258389        -7.0311 
  22   2.0000      -0.208431        -5.6717 
  23   0.0000      -0.030883        -0.8404 
  24   0.0000       0.014511         0.3949 
  25   0.0000       0.058773         1.5993 
  26   0.0000       0.078109         2.1254 
  27   0.0000       0.094319         2.5666 
  28   0.0000       0.100877         2.7450 
  29   0.0000       0.113277         3.0824 
  30   0.0000       0.123683         3.3656 
  31   0.0000       0.140628         3.8267 
  32   0.0000       0.150179         4.0866 
  33   0.0000       0.157490         4.2855 
*Only the first 10 virtual orbitals were printed.

                    ********************************
                    * MULLIKEN POPULATION ANALYSIS *
                    ********************************

-----------------------
MULLIKEN ATOMIC CHARGES
-----------------------
   0 C :   -0.050671
   1 C :   -0.051744
   2 C :   -0.020654
   3 C :   -0.020884
   4 C :   -0.050683
   5 C :   -0.026268
   6 H :   -0.008812
   7 H :    0.023640
   8 H :    0.015806
   9 H :    0.025371
  10 H :    0.032652
  11 H :    0.029868
  12 H :    0.028843
  13 H :    0.017269
  14 H :    0.033549
  15 H :    0.022718
Sum of atomic charges:    0.0000000

--------------------------------
MULLIKEN REDUCED ORBITAL CHARGES
--------------------------------
  0 C s       :     3.114737  s :     3.114737
      pz      :     0.987906  p :     2.908577
      px      :     0.931744
      py      :     0.988928
      dz2     :     0.001636  d :     0.027358
      dxz     :     0.003826
      dyz     :     0.005555
      dx2y2   :     0.009392
      dxy     :     0.006949

  1 C s       :     3.148495  s :     3.148495
      pz      :     0.989562  p :     2.866455
      px      :     0.966117
      py      :     0.910776
      dz2     :     0.003435  d :     0.036794
      dxz     :     0.003239
      dyz     :     0.008723
      dx2y2   :     0.012735
      dxy     :     0.008662

  2 C s       :     3.114258  s :     3.114258
      pz      :     0.977610  p :     2.870386
      px      :     0.953515
      py      :     0.939260
      dz2     :     0.004842  d :     0.036010
      dxz     :     0.004989
      dyz     :     0.010266
      dx2y2   :     0.008121
      dxy     :     0.007792

  3 C s       :     3.085299  s :     3.085299
      pz      :     0.997334  p :     2.905042
      px      :     0.945680
      py      :     0.962028
      dz2     :     0.005239  d :     0.030543
      dxz     :     0.006200
      dyz     :     0.007725
      dx2y2   :     0.007911
      dxy     :     0.003468

  4 C s       :     3.089985  s :     3.089985
      pz      :     0.971052  p :     2.930551
      px      :     0.961630
      py      :     0.997869
      dz2     :     0.004204  d :     0.030147
      dxz     :     0.005888
      dyz     :     0.008928
      dx2y2   :     0.006961
      dxy     :     0.004167

  5 C s       :     3.038936  s :     3.038936
      pz      :     0.966215  p :     2.960820
      px      :     1.014947
      py      :     0.979657
      dz2     :     0.008337  d :     0.026512
      dxz     :     0.001504
      dyz     :     0.007170
      dx2y2   :     0.005100
      dxy     :     0.004400

  6 H s       :     0.978802  s :     0.978802
      pz      :     0.005157  p :     0.030011
      px      :     0.019895
      py      :     0.004959

  7 H s       :     0.952846  s :     0.952846
      pz      :     0.006193  p :     0.023514
      px      :     0.013036
      py      :     0.004284

  8 H s       :     0.960817  s :     0.960817
      pz      :     0.007626  p :     0.023377
      px      :     0.005198
      py      :     0.010553

  9 H s       :     0.952097  s :     0.952097
      pz      :     0.007107  p :     0.022532
      px      :     0.004281
      py      :     0.011143

 10 H s       :     0.944235  s :     0.944235
      pz      :     0.011049  p :     0.023113
      px      :     0.007979
      py      :     0.004085

 11 H s       :     0.946675  s :     0.946675
      pz      :     0.005776  p :     0.023457
      px      :     0.007022
      py      :     0.010659

 12 H s       :     0.946938  s :     0.946938
      pz      :     0.014259  p :     0.024219
      px      :     0.005899
      py      :     0.004061

 13 H s       :     0.960415  s :     0.960415
      pz      :     0.005021  p :     0.022316
      px      :     0.003886
      py      :     0.013409

 14 H s       :     0.943652  s :     0.943652
      pz      :     0.009263  p :     0.022799
      px      :     0.004978
      py      :     0.008557

 15 H s       :     0.954230  s :     0.954230
      pz      :     0.007090  p :     0.023051
      px      :     0.006909
      py      :     0.009052



                     *******************************
                     * LOEWDIN POPULATION ANALYSIS *
                     *******************************

----------------------
LOEWDIN ATOMIC CHARGES
----------------------
   0 C :   -0.070418
   1 C :   -0.032526
   2 C :   -0.065678
   3 C :   -0.017390
   4 C :   -0.029448
   5 C :   -0.085528
   6 H :    0.059883
   7 H :    0.026972
   8 H :    0.023582
   9 H :    0.024286
  10 H :    0.030785
  11 H :    0.023875
  12 H :    0.027588
  13 H :    0.024423
  14 H :    0.027527
  15 H :    0.032066

-------------------------------
LOEWDIN REDUCED ORBITAL CHARGES
-------------------------------
  0 C s       :     2.882385  s :     2.882385
      pz      :     1.019639  p :     3.116589
      px      :     1.039257
      py      :     1.057692
      dz2     :     0.004564  d :     0.071444
      dxz     :     0.008737
      dyz     :     0.013724
      dx2y2   :     0.024411
      dxy     :     0.020008

  1 C s       :     2.903152  s :     2.903152
      pz      :     0.968246  p :     3.035393
      px      :     0.993052
      py      :     1.074095
      dz2     :     0.007208  d :     0.093981
      dxz     :     0.007468
      dyz     :     0.020968
      dx2y2   :     0.035243
      dxy     :     0.023094

  2 C s       :     2.871995  s :     2.871995
      pz      :     1.032523  p :     3.102024
      px      :     1.021803
      py      :     1.047698
      dz2     :     0.011178  d :     0.091658
      dxz     :     0.013098
      dyz     :     0.026651
      dx2y2   :     0.021246
      dxy     :     0.019486

  3 C s       :     2.888253  s :     2.888253
      pz      :     1.026720  p :     3.054464
      px      :     0.978414
      py      :     1.049331
      dz2     :     0.011652  d :     0.074672
      dxz     :     0.015832
      dyz     :     0.019630
      dx2y2   :     0.019380
      dxy     :     0.008178

  4 C s       :     2.887639  s :     2.887639
      pz      :     1.043191  p :     3.068995
      px      :     0.960611
      py      :     1.065193
      dz2     :     0.009480  d :     0.072814
      dxz     :     0.013803
      dyz     :     0.023736
      dx2y2   :     0.017707
      dxy     :     0.008089

  5 C s       :     2.886931  s :     2.886931
      pz      :     1.054003  p :     3.129078
      px      :     1.015071
      py      :     1.060004
      dz2     :     0.022331  d :     0.069519
      dxz     :     0.003041
      dyz     :     0.019593
      dx2y2   :     0.013545
      dxy     :     0.011009

  6 H s       :     0.828677  s :     0.828677
      pz      :     0.011340  p :     0.111440
      px      :     0.091330
      py      :     0.008770

  7 H s       :     0.905312  s :     0.905312
      pz      :     0.018560  p :     0.067716
      px      :     0.037626
      py      :     0.011530

  8 H s       :     0.909131  s :     0.909131
      pz      :     0.023030  p :     0.067286
      px      :     0.014841
      py      :     0.029415

  9 H s       :     0.907895  s :     0.907895
      pz      :     0.021527  p :     0.067818
      px      :     0.013903
      py      :     0.032389

 10 H s       :     0.900668  s :     0.900668
      pz      :     0.032685  p :     0.068547
      px      :     0.024467
      py      :     0.011395

 11 H s       :     0.906162  s :     0.906162
      pz      :     0.016494  p :     0.069962
      px      :     0.022506
      py      :     0.030962

 12 H s       :     0.901229  s :     0.901229
      pz      :     0.041490  p :     0.071183
      px      :     0.018090
      py      :     0.011602

 13 H s       :     0.908982  s :     0.908982
      pz      :     0.014489  p :     0.066595
      px      :     0.012742
      py      :     0.039364

 14 H s       :     0.904802  s :     0.904802
      pz      :     0.027229  p :     0.067672
      px      :     0.015453
      py      :     0.024990

 15 H s       :     0.899565  s :     0.899565
      pz      :     0.022145  p :     0.068369
      px      :     0.020039
      py      :     0.026185



                      *****************************
                      * MAYER POPULATION ANALYSIS *
                      *****************************

  NA   - Mulliken gross atomic population
  ZA   - Total nuclear charge
  QA   - Mulliken gross atomic charge
  VA   - Mayer's total valence
  BVA  - Mayer's bonded valence
  FA   - Mayer's free valence

  ATOM       NA         ZA         QA         VA         BVA        FA
  0 C      6.0507     6.0000    -0.0507     3.9574     3.9574    -0.0000
  1 C      6.0517     6.0000    -0.0517     3.9981     3.9981     0.0000
  2 C      6.0207     6.0000    -0.0207     3.9151     3.9151     0.0000
  3 C      6.0209     6.0000    -0.0209     4.0167     4.0167     0.0000
  4 C      6.0507     6.0000    -0.0507     4.0935     4.0935     0.0000
  5 C      6.0263     6.0000    -0.0263     3.9850     3.9850     0.0000
  6 H      1.0088     1.0000    -0.0088     1.0595     1.0595     0.0000
  7 H      0.9764     1.0000     0.0236     0.9813     0.9813    -0.0000
  8 H      0.9842     1.0000     0.0158     0.9699     0.9699    -0.0000
  9 H      0.9746     1.0000     0.0254     0.9758     0.9758     0.0000
 10 H      0.9673     1.0000     0.0327     0.9740     0.9740     0.0000
 11 H      0.9701     1.0000     0.0299     0.9816     0.9816     0.0000
 12 H      0.9712     1.0000     0.0288     0.9805     0.9805    -0.0000
 13 H      0.9827     1.0000     0.0173     0.9762     0.9762     0.0000
 14 H      0.9665     1.0000     0.0335     0.9743     0.9743    -0.0000
 15 H      0.9773     1.0000     0.0227     0.9845     0.9845     0.0000

  Mayer bond orders larger than 0.100000
B(  0-C ,  1-C ) :   1.9900 B(  0-C ,  7-H ) :   0.9547 B(  0-C ,  8-H ) :   0.9294 
B(  1-C ,  2-C ) :   1.3201 B(  1-C ,  6-H ) :   0.5693 B(  2-C ,  3-C ) :   1.4516 
B(  2-C ,  5-C ) :   0.1594 B(  2-C , 15-H ) :   0.9524 B(  3-C ,  4-C ) :   0.6027 
B(  3-C , 13-H ) :   0.9436 B(  3-C , 14-H ) :   0.9500 B(  4-C ,  5-C ) :   1.4902 
B(  4-C ,  9-H ) :   0.9498 B(  4-C , 10-H ) :   0.9490 B(  5-C ,  6-H ) :   0.4324 
B(  5-C , 11-H ) :   0.9535 B(  5-C , 12-H ) :   0.9357 

-------
TIMINGS
-------

Total SCF time: 0 days 0 hours 0 min 9 sec 

Total time                  ....       9.731 sec
Sum of individual times     ....       9.211 sec  ( 94.7%)

SCF preparation             ....       0.178 sec  (  1.8%)
Fock matrix formation       ....       8.765 sec  ( 90.1%)
  Startup                   ....       0.005 sec  (  0.1% of F)
  Split-RI-J                ....       0.757 sec  (  8.6% of F)
  Chain of spheres X        ....       6.570 sec  ( 75.0% of F)
  XC integration            ....       1.751 sec  ( 20.0% of F)
    XC Preparation          ....       0.000 sec  (  0.0% of XC)
    Basis function eval.    ....       0.584 sec  ( 33.3% of XC)
    Density eval.           ....       0.321 sec  ( 18.3% of XC)
    XC-Functional eval.     ....       0.108 sec  (  6.2% of XC)
    XC-Potential eval.      ....       0.350 sec  ( 20.0% of XC)
Diagonalization             ....       0.000 sec  (  0.0%)
Density matrix formation    ....       0.034 sec  (  0.3%)
Total Energy calculation    ....       0.018 sec  (  0.2%)
Population analysis         ....       0.028 sec  (  0.3%)
Orbital Transformation      ....       0.018 sec  (  0.2%)
Orbital Orthonormalization  ....       0.000 sec  (  0.0%)
DIIS solution               ....       0.090 sec  (  0.9%)
SOSCF solution              ....       0.080 sec  (  0.8%)
Finished LeanSCF after   9.7 sec

Maximum memory used throughout the entire LEANSCF-calculation: 12.0 MB


-------------------------------------------------------------------------------
                          DFT DISPERSION CORRECTION                            
                                                                               
                              DFTD3 V3.1  Rev 1                                
                          USING Becke-Johnson damping                          
-------------------------------------------------------------------------------
The B3LYP functional is recognized
Active option DFTDOPT                   ...         4   

molecular C6(AA) [au] = 2198.614817 


            DFT-D V3
 parameters
 s6 scaling factor         :     1.0000 
 a1 scaling factor         :     0.3981 
 s8 scaling factor         :     1.9889 
 a2 scaling factor         :     4.4211 
 ad hoc parameters k1-k3   :    16.0000     1.3333    -4.0000 

 Edisp/kcal,au: -14.290951734456  -0.022774078800 
 E6   /kcal   :  -6.914381166 
 E8   /kcal   :  -7.376570569 
 % E8         :  51.617070059 

-------------------------   ----------------
Dispersion correction           -0.022774079
-------------------------   ----------------


-------------------------   --------------------
FINAL SINGLE POINT ENERGY      -234.201176545481
-------------------------   --------------------



           ************************************************************
           *        Program running with 6 parallel MPI-processes     *
           *              working on a common directory               *
           ************************************************************
------------------------------------------------------------------------------
                         ORCA SCF GRADIENT CALCULATION
------------------------------------------------------------------------------

Nuc. rep. gradient        (SHARK) ... done (  0.0 sec)
HCore & Overlap gradient  (SHARK) ... done (  0.0 sec)
Split-RIJ-J gradient      (SHARK) ... done (  0.3 sec)
done (  4.6 sec)
XC gradient                       ... done (  0.9 sec)
Dispersion correction             ... done (  0.1 sec)

-------------------
DISPERSION GRADIENT
-------------------

   1   C   :   -0.000540385   -0.000526909   -0.000144258
   2   C   :   -0.000260272   -0.000073795    0.000017793
   3   C   :   -0.000455187    0.000327522    0.000136159
   4   C   :    0.002704976   -0.000217593   -0.001451097
   5   C   :   -0.002334930    0.000637827    0.001756533
   6   C   :   -0.000606143   -0.000471989   -0.000266352
   7   H   :    0.001144006    0.000178021   -0.000092506
   8   H   :   -0.000175073   -0.000167650   -0.000012332
   9   H   :   -0.000133781   -0.000209333   -0.000070136
  10   H   :    0.000272357    0.000126139   -0.000035692
  11   H   :    0.000203931    0.000079984    0.000004881
  12   H   :    0.000279628   -0.000132077   -0.000091481
  13   H   :    0.000258452   -0.000073058   -0.000163819
  14   H   :   -0.000064668    0.000121689    0.000171700
  15   H   :   -0.000043643    0.000166402    0.000278241
  16   H   :   -0.000249267    0.000234821   -0.000037632

Difference to translation invariance:
           :    0.0000000000    0.0000000000    0.0000000000

Difference to rotation invariance:
           :    0.0000000000   -0.0000000000    0.0000000000

Norm of the Dispersion gradient    ...    0.0047077827
RMS gradient                       ...    0.0006795099
MAX gradient                       ...    0.0027049764

------------------
CARTESIAN GRADIENT
------------------

   1   C   :    0.000007350    0.000006700   -0.000047849
   2   C   :   -0.000001652   -0.000036651   -0.000028936
   3   C   :   -0.000101190    0.000058839   -0.000050895
   4   C   :    0.000128701   -0.000123113    0.000103924
   5   C   :    0.000025039   -0.000008064    0.000047661
   6   C   :   -0.000032154   -0.000034594    0.000186891
   7   H   :   -0.000011700   -0.000018309    0.000133493
   8   H   :    0.000061319   -0.000007300   -0.000046824
   9   H   :    0.000014129   -0.000003321   -0.000014139
  10   H   :   -0.000008702   -0.000011456   -0.000055765
  11   H   :    0.000020282   -0.000043349   -0.000063607
  12   H   :   -0.000057728    0.000070999    0.000028317
  13   H   :   -0.000097645    0.000058135   -0.000123215
  14   H   :   -0.000020643    0.000033025   -0.000001546
  15   H   :    0.000062787    0.000070742   -0.000037133
  16   H   :    0.000011809   -0.000012283   -0.000030376

Difference to translation invariance:
           :   -0.0000000000   -0.0000000000   -0.0000000000

Difference to rotation invariance:
           :   -0.0000029525    0.0000555115    0.0000344775

Norm of the Cartesian gradient     ...    0.0004338177
RMS gradient                       ...    0.0000626162
MAX gradient                       ...    0.0001868914

-------
TIMINGS
-------

Total SCF gradient time     ....        5.889 sec

Densities                   ....       0.000 sec  (  0.0%)
One electron gradient       ....       0.048 sec  (  0.8%)
RI-J Coulomb gradient       ....       0.257 sec  (  4.4%)
COSX gradient               ....       4.603 sec  ( 78.2%)
XC gradient                 ....       0.928 sec  ( 15.8%)

Maximum memory used throughout the entire SCFGRAD-calculation: 28.5 MB


           ************************************************************
           *        Program running with 6 parallel MPI-processes     *
           *              working on a common directory               *
           ************************************************************

------------------------------------------------------------------------------
                              ORCA PROPERTY CALCULATIONS
------------------------------------------------------------------------------

GBWName                                 ... orca.gbw
Number of atoms                         ...     16
Number of basis functions               ...    134
Max core memory                         ...   4096 MB

Electric properties:
Dipole moment                           ... YES
Quadrupole moment                       ...  NO
Static polarizability (Dipole/Dipole)   ...  NO
Static polarizability (Dipole/Quad.)    ...  NO
Static polarizability (Quad./Quad.)     ...  NO
Static polarizability (Velocity)        ...  NO
Static hyperpolarizability              ...  NO

Atomic electric properties:
Dipole moment                           ...  NO
Quadrupole moment                       ...  NO
Static polarizability                   ...  NO

Choice of electric origin               ... Center of mass
Position of electric origin             ...    -0.318993    -0.004238     0.020112

General magnetic properties:
Magnetizability                         ...  NO

EPR properties:
g-Tensor (aka g-matrix)                 ...  NO
Zero-Field splitting spin-orbit         ...  NO
Zero-field splitting spin-spin          ...  NO
Hyperfine couplings                     ...  NO (   0 nuclei)
Quadrupole couplings                    ...  NO (   0 nuclei)
Contact density                         ...  NO (   0 nuclei)

NMR properties:
Chemical shifts                         ...  NO (   0 nuclei)
Spin-rotation constants                 ...  NO (   0 nuclei)
Spin-spin couplings                     ...  NO (   0 nuclei,    0 pairs)

Choice of magnetic origin               ... GIAO
Position of magnetic origin             ...     0.000000     0.000000     0.000000

Properties with geometric perturbations:
SCF Hessian                             ...  NO
IR spectrum                             ...  NO
VCD spectrum                            ...  NO
X-ray spectroscopy properties:
SCF XES/XAS/RIXS spectra                ...  NO

SCF SOC stabilization energy            ...  NO
Diagonal Born-Oppenheimer correction    ...  NO

-------------
DIPOLE MOMENT
-------------

Method             : SCF
Type of density    : Electron Density
Multiplicity       :   1
Irrep              :   0
Energy             :  -234.1784024666810069 Eh
Basis              : AO
                                X                 Y                 Z
Electronic contribution:     -2.533284642       0.152689659       0.213480244
Nuclear contribution   :      2.766016971       0.036750588      -0.174394356
                        -----------------------------------------
Total Dipole Moment    :      0.232732329       0.189440247       0.039085889
                        -----------------------------------------
Magnitude (a.u.)       :      0.302621299
Magnitude (Debye)      :      0.769202213



--------------------
Rotational spectrum 
--------------------
 
Rotational constants in cm-1:             0.174675             0.084213             0.061429 
Rotational constants in MHz :          5236.637015          2524.648841          1841.595789 

Dipole components along the rotational axes: 
x,y,z [a.u.] :     0.299144     0.038564    -0.024605 
x,y,z [Debye]:     0.760363     0.098022    -0.062541 

 

Dipole moment calculation done in   0.0 sec 

Maximum memory used throughout the entire PROP-calculation: 6.7 MB

--------------------------------
SUGGESTED CITATIONS FOR THIS RUN
--------------------------------

Below you find a list of papers that are relevant to this ORCA run
We neither can nor want to force you to cite these papers, but we appreciate if you do
You receive ORCA, which is the product of decades of hard work by many enthusiastic individuals, for free
The only thing we kindly ask in return is that you cite our papers,
We deeply appreciate it, if you show your appreciation for ORCA by not just citing the generic ORCA reference.

Please note that relegating all ORCA citations to the supporting information does *not* help us.
SI sections are not indexed - citations you put there will not count into any citation statistics
But we need these citations in order to attract the funding resources that allow us to do what we are doing

Therefore, if you are a happy ORCA user, please consider citing a few of the papers listed below in the main body of your paper

In addition to the list printed below, the program has created the file orca.bibtex that contains the list in bibtex format
You can import this file easily into all common literature databanks and citation aid programs


List of essential papers. We consider these as the minimum necessary citations

  1. Neese, F.
     Software update: the ORCA program system, version 6.0
     WIRES Comput. Molec. Sci. 2025 15(1), e70019
     doi.org/10.1002/wcms.7019

List of papers to cite with high priority. The work reported in these papers was absolutely
necessary for this run to complete.
Our perspective: the developers of density functionals and basis sets usually get cited in chemistry papers
Good! But without the algorithms to do something with them, the functionals or basis sets would not do anything.
Hence, in our opinion, the algorithm design and method developments papers are equally worthy of getting cited

  1. Neese, F.
     An improvement of the resolution of the identity approximation for the formation of the Coulomb matrix
     J. Comp. Chem. 2003 24(14), 1740-1747
     doi.org/10.1002/jcc.10318
  2. Neese, F.; Wennmohs, F.; Hansen, A.; Becker, U.
     Efficient, approximate and parallel Hartree-Fock and hybrid DFT calculations. A 'chain-of-spheres' algorithm for the Hartree-Fock exchange
     Chem. Phys. 2009 356(1-3), 98-109
     doi.org/10.1016/j.chemphys.2008.10.036
  3. Grimme, S.; Antony, J.; Ehrlich, S.; Krieg, H.
     A consistent and accurate ab initio parametrization of density functional dispersion correction (DFT-D) for the 94 elements H-Pu
     J. Chem. Phys. 2010 132 , 154104
     doi.org/10.1063/1.3382344
  4. Grimme, S.; Ehrlich, S.; Goerigk, L.
     Effect of the damping function in dispersion corrected density functional theory
     J. Comput. Chem. 2011 32(7), 1456-1465
     doi.org/10.1002/jcc.21759
  5. Helmich-Paris, B.; de Souza, B.; Neese, F.; Izsák, R.
     An improved chain of spheres for exchange algorithm
     J. Chem. Phys. 2021 155(10), 104109
     doi.org/10.1063/5.0058766
  6. Neese, F.
     The SHARK Integral Generation and Digestion System
     J. Comp. Chem. 2022 44(3), 381
     doi.org/10.1002/jcc.26942

List of suggested additional citations. These are papers that are important in the 'surrounding' of 
of this run, or papers that preceded the highly important papers. If you like your results we are grateful for a citation.

  1. Izsak, R.; Neese, F.
     An overlap fitted chain of spheres exchange method
     J. Chem. Phys. 2011 135 , 144105
     doi.org/10.1063/1.3646921
  2. Izsak, R.; Hansen, A.; Neese, F.
     The resolution of identity and chain of spheres approximations for the LPNO-CCSD singles Fock term
     Molec. Phys. 2012 110 , 2413-2417
     doi.org/10.1080/00268976.2012.687466
  3. Neese, F.
     The ORCA program system
     WIRES Comput. Molec. Sci. 2012 2(1), 73-78
     doi.org/10.1002/wcms.81
  4. Izsak, R.; Neese, F.; Klopper, W.
     Robust fitting techniques in the chain of spheres approximation to the Fock exchange: The role of the complementary space
     J. Chem. Phys. 2013 139 , 
     doi.org/10.1063/1.4819264
  5. Neese, F.
     Software update: the ORCA program system, version 4.0
     WIRES Comput. Molec. Sci. 2018 8(1), 1-6
     doi.org/10.1002/wcms.1327
  6. Neese, F.; Wennmohs, F.; Becker, U.; Riplinger, C.
     The ORCA quantum chemistry program package
     J. Chem. Phys. 2020 152(22), 224108
     doi.org/10.1063/5.0004608
  7. Neese, F.
     Software update: The ORCA program system—Version 5.0
     WIRES Comput. Molec. Sci. 2022 12(1), e1606
     doi.org/10.1002/wcms.1606

List of optional additional citations

  1. Neese, F.
     Approximate second-order SCF convergence for spin unrestricted wavefunctions
     Chem. Phys. Lett. 2000 325(1-3), 93-98
     doi.org/10.1016/s0009-2614(00)00662-x

Timings for individual modules:

Sum of individual times          ...       18.939 sec (=   0.316 min)
Startup calculation              ...        1.467 sec (=   0.024 min)   7.7 %
SCF iterations                   ...       10.643 sec (=   0.177 min)  56.2 %
Property calculations            ...        0.469 sec (=   0.008 min)   2.5 %
SCF Gradient evaluation          ...        6.359 sec (=   0.106 min)  33.6 %
                             ****ORCA TERMINATED NORMALLY****
TOTAL RUN TIME: 0 days 0 hours 0 minutes 19 seconds 515 msec
