
                                 *****************
                                 * O   R   C   A *
                                 *****************

                                            #,                                       
                                            ###                                      
                                            ####                                     
                                            #####                                    
                                            ######                                   
                                           ########,                                 
                                     ,,################,,,,,                         
                               ,,#################################,,                 
                          ,,##########################################,,             
                       ,#########################################, ''#####,          
                    ,#############################################,,   '####,        
                  ,##################################################,,,,####,       
                ,###########''''           ''''###############################       
              ,#####''   ,,,,##########,,,,          '''####'''          '####       
            ,##' ,,,,###########################,,,                        '##       
           ' ,,###''''                  '''############,,,                           
         ,,##''                                '''############,,,,        ,,,,,,###''
      ,#''                                            '''#######################'''  
     '                                                          ''''####''''         
             ,#######,   #######,   ,#######,      ##                                
            ,#'     '#,  ##    ##  ,#'     '#,    #''#        ,####,    ,#,          
            ##       ##  ##   ,#'  ##            #'  '#       #'       ,# #          
            ##       ##  #######   ##           ,######,      #####,      #          
            '#,     ,#'  ##    ##  '#,     ,#' ,#      #,     #,   #      #          
             '#######'   ##     ##  '#######'  #'      '#     '####' #    #          



                #########################################################
                #                        -***-                          #
                #          Department of theory and spectroscopy        #
                #                                                       #
                #                      Frank Neese                      #
                #                                                       #
                #     Directorship, Architecture, Infrastructure        #
                #                    SHARK, DRIVERS                     #
                #        Core code/Algorithms in most modules           #
                #                                                       #
                #        Max Planck Institute fuer Kohlenforschung      #
                #                Kaiser Wilhelm Platz 1                 #
                #                 D-45470 Muelheim/Ruhr                 #
                #                      Germany                          #
                #                                                       #
                #                  All rights reserved                  #
                #                        -***-                          #
                #########################################################


                         Program Version 6.1.0  -  RELEASE   -
                                (GIT: $679e74b$)
                          ($2025-06-10 18:02:51 +0200$)


 With contributions from (in alphabetic order):
[Max-Planck-Institut fuer Kohlenforschung]                               
  Daniel Aravena         : Magnetic Suceptibility                        
  Michael Atanasov       : Ab Initio Ligand Field Theory (pilot matlab implementation)
  Alexander A. Auer      : GIAO ZORA, VPT2 properties, NMR spectrum      
  Ute Becker             : All parallelization in ORCA, NUMFREQ, NUMCALC 
  Giovanni Bistoni       : ED, misc. LED, open-shell LED, HFLD           
  Dmytro Bykov           : pre 5.0 version of the SCF Hessian            
  Marcos Casanova-Páez   : Triplet and SCS-CIS(D). UHF-(DLPNO)-IP/EA/STEOM-CCSD. UHF-CVS-IP/STEOM-CCSD   
  Vijay G. Chilkuri      : MRCI spin determinant printing, contributions to CSF-ICE 
  Pauline Colinet        : FMM embedding                                 
  Dipayan Datta          : RHF DLPNO-CCSD density                        
  Achintya Kumar Dutta   : EOM-CC, STEOM-CC                              
  Nicolas Foglia         : Exact transition moments, OPA infrastructure, MCD improvements    
  Dmitry Ganyushin       : Spin-Orbit,Spin-Spin,Magnetic field MRCI      
  Miquel Garcia-Rates    : C-PCM and meta-GGA Hessian, CCSD/C-PCM, Gaussian charge scheme 
  Tiago L. C. Gouveia    : GS-ROHF, GS-ROCIS                             
  Yang Guo               : DLPNO-NEVPT2, F12-NEVPT2, CIM, IAO-localization        
  Andreas Hansen         : Spin unrestricted coupled pair/coupled cluster methods 
  Ingolf Harden          : AUTO-CI MPn and infrastructure                
  Benjamin Helmich-Paris : MC-RPA, TRAH-(SCF,CASSCF), AVAS, COSX integrals, SCF dyn. polar., MC-PDFT, srDFT 
  Lee Huntington         : MR-EOM, pCC                                   
  Robert Izsak           : Overlap fitted RIJCOSX, COSX-SCS-MP3, EOM     
  Riya Kayal             : Wick's Theorem for AUTO-CI, AUTO-CI UHF-CCSDT 
  Emily Kempfer          : AUTO-CI RHF CISDT and CCSDT, approximate NEVPT4
  Christian Kollmar      : KDIIS, OOCD, Brueckner-CCSD(T), CCSD density, CASPT2, CASPT2-K, improved NEVPT2 
  Axel Koslowski         : Symmetry handling                             
  Simone Kossmann        : meta-GGA functionals, TD-DFT gradient, OOMP2, (MP2 Hessian; deprecated post 5.0) 
  Lucas Lang             : DCDCAS, Hyperfine gauge corrections, ICE-SOC+SSC
  Marvin Lechner         : AUTO-CI (C++ implementation), FIC-MRCC        
  Spencer Leger          : CASSCF response                               
  Dagmar Lenk            : GEPOL surface, SMD, ORCA-2-JSON               
  Dimitrios Liakos       : Extrapolation schemes; Compound Job, Property file
  Dimitrios Manganas     : Further ROCIS development; embedding schemes. LFT, Crystal Embedding 
  Dimitrios Pantazis     : SARC Basis sets                               
  Anastasios Papadopoulos: AUTO-CI, single reference methods and gradients 
  Taras Petrenko         : pre 6.0 DFT Hessian and TD-DFT gradient,  ECA, NRVS 
  Petra Pikulova         : Analytic Raman intensities                    
  Peter Pinski           : DLPNO-MP2, DLPNO-MP2 Gradient                 
  Shashank Vittal Rao    : ES-AILFT, MagRelax                            
  Christoph Reimann      : Effective Core Potentials                     
  Marius Retegan         : Local ZFS, SOC                                
  Christoph Riplinger    : Optimizer, TS searches, QM/MM, DLPNO-CCSD(T), (RO)-DLPNO pert. Triples 
  Michael Roemelt        : Original ROCIS implementation, recursive CI coupling coefficients
  Masaaki Saitow         : Open-shell DLPNO-CCSD energy and density      
  Barbara Sandhoefer     : DKH picture change effects                    
  Yorick L. A. Schmerwitz: GMF and freeze-and-release deltaSCF, NEB S-IDPP initial path                    
  Kantharuban Sivalingam : CASSCF convergence/infrastructure, NEVPT2, NEVPT3, NEVPT4(SD), FIC-MRCI and CEPA variants
  Bernardo de Souza      : ESD, SOC TD-DFT                               
  Georgi L. Stoychev     : AutoAux, RI-MP2 NMR, DLPNO-MP2 response, X2C  
  Van Anh Tran           : RI-MP2 g-tensors                              
  Willem Van den Heuvel  : Paramagnetic NMR                              
  Zikuan Wang            : NOTCH, Electric field optimization            
  Frank Wennmohs         : Technical directorship and infrastructure     
  Hang Xu                : AUTO-CI-Response properties                   
                                                                         
[FACCTs GmbH]                                                            
  Markus Bursch, Nicolas Foglia, Miquel Garcia-Rates, Ingolf Harden, Hagen Neugebauer, Anastasios Papadopoulos, 
  Christoph Riplinger, Bernardo de Souza, Georgi L. Stoychev                                                    
                                                                 
  APM, various basis sets, CI-OPT, improved COSX, DLPNO-Multilevel,           
  DOCKER, DRACO, updates on ESD, Fragmentator, GOAT, IRC, LR-CPCM, L-BFGS, MBIS, meta-GGA TD-DFT gradient, ML-optimized integration grids, 
  MM, NACMEs, nearIR, NEB, NEB-TS, NL-DFT gradient (VV10), 2- and 3-layer-ONIOM, interface openCOSMO-RS, QMMM,   
  Crystal-QMMM, RESP, rigid body optimization, SF, symmetry and pop. for TD-DFT, various functionals, SOLVATOR                                   
                                                                         
[Other institutions]                                                     
  V. Asgeirsson          : NEB                                           
  Christoph Bannwarth    : sTDA-DFT, sTD-DFT, PBEh-3c, B97-3c, D3        
  Giovanni Bistoni       : ETS/NOCV, ADLD/ADEX, COVALED                  
  Martin Brehm           : Molecular dynamics                            
  Ronald Cardenas        : ETS/NOCV                                      
  Martina Colucci        : COVALED                                       
  Sebastian Ehlert       : rSCAN, r2SCAN, r2SCAN-3c, D4, dhf basis sets  
  Marvin Friede          : D4 for Fr, Ra, Ac-Lr                          
  Lars Goerigk           : TD-DFT with DH, B97 family of functionals     
  Stefan Grimme          : VdW corrections, initial TS optimization, DFT functionals, gCP, sTDA/sTD-DF 
  Waldemar Hujo          : DFT-NL                                        
  H. Jonsson             : NEB                                           
  Holger Kruse           : gCP                                           
  Marcel Mueller         : wB97X-3c, vDZP basis set                      
  Hagen Neugebauer       : wr2SCAN, Native XTB                           
  Gianluca Regni         : ADLD/ADEX                                     
  Tobias Risthaus        : pre 6.0 range-separated hybrid DFT and stability analysis
  Lukas Wittmann         : regularized MP2, r2SCAN double-hybrids, wr2SCAN        
                                                                         
We gratefully acknowledge several colleagues who have allowed us to      
interface, adapt or use parts of their codes:                            
  Ed Valeev, F. Pavosevic, A. Kumar             : LibInt (2-el integral package), F12 methods 
  Garnet Chan, S. Sharma, J. Yang, R. Olivares  : DMRG                   
  Ulf Ekstrom                                   : XCFun DFT Library      
  Mihaly Kallay                                 : mrcc  (arbitrary order and MRCC methods)
  Frank Weinhold                                : gennbo (NPA and NBO analysis)           
  Simon Mueller                                 : openCOSMO-RS                            
  Christopher J. Cramer and Donald G. Truhlar   : smd solvation model                     
  S Lehtola, MJT Oliveira, MAL Marques          : LibXC Library                           
  Liviu Ungur et al                             : ANISO software                          


 Your calculation uses the libint2 library for the computation of 2-el integrals
 For citations please refer to: http://libint.valeyev.net

 Your ORCA version has been built with support for libXC version: 7.0.0
 For citations please refer to: https://libxc.gitlab.io

 This ORCA versions uses:
   CBLAS   interface :  Fast vector & matrix operations
   LAPACKE interface :  Fast linear algebra routines
   SCALAPACK package :  Parallel linear algebra routines
   Shared memory     :  Shared parallel matrices
   BLAS/LAPACK       :  OpenBLAS 0.3.29  USE64BITINT DYNAMIC_ARCH NO_AFFINITY Zen SINGLE_THREADED
        Core in use  :  Zen
   Copyright (c) 2011-2014, The OpenBLAS Project


  ***********************************
  * Starting time: Wed Sep 10 13:33:15 2025
  * Host name:     wyk-Server
  * Process ID:    2271008
  * Working dir.:  /home/wyk/Documents/code/openQDC/MGMR/singlepointcalc/7/sp
  ***********************************

Your calculation utilizes the atom-pairwise dispersion correction
with the Becke-Johnson damping scheme (D3BJ)


Warning: RI is on but no J-basis has been assigned. Assigning Def2/J (nothing to worry about!)
================================================================================

----- Orbital basis set information -----
Your calculation utilizes the basis: def2-SVP
   F. Weigend and R. Ahlrichs, Phys. Chem. Chem. Phys. 7, 3297 (2005).

----- AuxJ basis set information -----
Your calculation utilizes the auxiliary basis: def2/J
   H-Rn: F. Weigend, Phys. Chem. Chem. Phys. 8, 1057 (2006).
   Fr-Lr: K. Eichkorn, F. Weigend, O. Treutler, R. Ahlrichs; Theor. Chem. Acc. 97, 119 (1997).

================================================================================
                                        WARNINGS
                       Please study these warnings very carefully!
================================================================================


================================================================================
                                       INPUT FILE
================================================================================
NAME = orca.inp
|  1> ! B3LYP def2-SVP d3 EnGrad 
|  2> %pal nprocs 6 end 
|  3> *xyz 0 1 
|  4> N   0.29350761357066 1.77700916763446 0.66419870809708
|  5> B   0.66486552311972 0.47109971697096 -0.20043145243945
|  6> N   -0.43207049396465 -1.98449315793648 -0.24730931321039
|  7> B   -0.79665438032674 -0.64186819587676 -0.21300712153464
|  8> H   0.522648780406 -2.29199728337562 -0.09311072788193
|  9> H   1.6189234368305 -0.15114595394375 0.22503087353556
| 10> H   0.63472677490526 0.68980662487395 -1.40112018460243
| 11> H   0.19037745743877 2.65085605067201 0.15875409779168
| 12> H   0.80752447443128 1.89072668926072 1.5310950742568
| 13> H   -1.06797326901741 -2.72846878641982 -0.51263997979915
| 14> H   -1.96451164414842 -0.37949442925335 -0.42238066200915
| 15> H   -0.47136427324497 0.69796955739369 0.51092068779602
| 16> *
| 17> 
| 18>                          ****END OF INPUT****
================================================================================

                     *******************************
                     * Energy+Gradient Calculation *
                     *******************************

---------------------------------
CARTESIAN COORDINATES (ANGSTROEM)
---------------------------------
  N      0.293508    1.777009    0.664199
  B      0.664866    0.471100   -0.200431
  N     -0.432070   -1.984493   -0.247309
  B     -0.796654   -0.641868   -0.213007
  H      0.522649   -2.291997   -0.093111
  H      1.618923   -0.151146    0.225031
  H      0.634727    0.689807   -1.401120
  H      0.190377    2.650856    0.158754
  H      0.807524    1.890727    1.531095
  H     -1.067973   -2.728469   -0.512640
  H     -1.964512   -0.379494   -0.422381
  H     -0.471364    0.697970    0.510921

----------------------------
CARTESIAN COORDINATES (A.U.)
----------------------------
  NO LB      ZA    FRAG     MASS         X           Y           Z
   0 N     7.0000    0    14.007    0.554649    3.358061    1.255154
   1 B     5.0000    0    10.810    1.256414    0.890249   -0.378761
   2 N     7.0000    0    14.007   -0.816495   -3.750149   -0.467347
   3 B     5.0000    0    10.810   -1.505459   -1.212955   -0.402525
   4 H     1.0000    0     1.008    0.987663   -4.331247   -0.175954
   5 H     1.0000    0     1.008    3.059322   -0.285624    0.425247
   6 H     1.0000    0     1.008    1.199460    1.303546   -2.647733
   7 H     1.0000    0     1.008    0.359761    5.009392    0.300002
   8 H     1.0000    0     1.008    1.526000    3.572956    2.893350
   9 H     1.0000    0     1.008   -2.018177   -5.156059   -0.968749
  10 H     1.0000    0     1.008   -3.712389   -0.717141   -0.798184
  11 H     1.0000    0     1.008   -0.890749    1.318971    0.965500

--------------------------------
INTERNAL COORDINATES (ANGSTROEM)
--------------------------------
 N      0   0   0     0.000000000000     0.00000000     0.00000000
 B      1   0   0     1.609624647185     0.00000000     0.00000000
 N      2   1   0     2.689870354999   130.99003023     0.00000000
 B      3   2   1     1.391668006133    39.25588676    43.14484814
 H      3   2   1     1.014802879250    83.70318731   232.83819115
 H      2   1   3     1.215908865216   114.09548220   259.40568811
 H      2   1   3     1.220817139154   112.16439339   123.30034780
 H      1   2   3     1.014750441333   117.03572157   229.36340336
 H      1   2   3     1.014225969710   115.66911017    93.35376432
 H      3   2   1     1.014037690488   158.44557391    86.08314515
 H      4   3   2     1.215141087086   117.11940670   167.94574518
 H      1   2   3     1.331483997357    54.07000953   345.29730156

---------------------------
INTERNAL COORDINATES (A.U.)
---------------------------
 N      0   0   0     0.000000000000     0.00000000     0.00000000
 B      1   0   0     3.041749761590     0.00000000     0.00000000
 N      2   1   0     5.083118306702   130.99003023     0.00000000
 B      3   2   1     2.629871400932    39.25588676    43.14484814
 H      3   2   1     1.917699521697    83.70318731   232.83819115
 H      2   1   3     2.297734759065   114.09548220   259.40568811
 H      2   1   3     2.307010052598   112.16439339   123.30034780
 H      1   2   3     1.917600428395   117.03572157   229.36340336
 H      1   2   3     1.916609320663   115.66911017    93.35376432
 H      3   2   1     1.916253524496   158.44557391    86.08314515
 H      4   3   2     2.296283868668   117.11940670   167.94574518
 H      1   2   3     2.516140106703    54.07000953   345.29730156

---------------------
BASIS SET INFORMATION
---------------------
There are 3 groups of distinct atoms

 Group   1 Type N   : 7s4p1d contracted to 3s2p1d pattern {511/31/1}
 Group   2 Type B   : 7s4p1d contracted to 3s2p1d pattern {511/31/1}
 Group   3 Type H   : 4s1p contracted to 2s1p pattern {31/1}

Atom   0N    basis set group =>   1
Atom   1B    basis set group =>   2
Atom   2N    basis set group =>   1
Atom   3B    basis set group =>   2
Atom   4H    basis set group =>   3
Atom   5H    basis set group =>   3
Atom   6H    basis set group =>   3
Atom   7H    basis set group =>   3
Atom   8H    basis set group =>   3
Atom   9H    basis set group =>   3
Atom  10H    basis set group =>   3
Atom  11H    basis set group =>   3
---------------------------------
AUXILIARY/J BASIS SET INFORMATION
---------------------------------
There are 3 groups of distinct atoms

 Group   1 Type N   : 12s5p4d2f1g contracted to 6s4p3d1f1g pattern {711111/2111/211/2/1}
 Group   2 Type B   : 12s5p4d2f1g contracted to 6s4p3d1f1g pattern {711111/2111/211/2/1}
 Group   3 Type H   : 5s2p1d contracted to 3s1p1d pattern {311/2/1}

Atom   0N    basis set group =>   1
Atom   1B    basis set group =>   2
Atom   2N    basis set group =>   1
Atom   3B    basis set group =>   2
Atom   4H    basis set group =>   3
Atom   5H    basis set group =>   3
Atom   6H    basis set group =>   3
Atom   7H    basis set group =>   3
Atom   8H    basis set group =>   3
Atom   9H    basis set group =>   3
Atom  10H    basis set group =>   3
Atom  11H    basis set group =>   3


           ************************************************************
           *        Program running with 6 parallel MPI-processes     *
           *              working on a common directory               *
           ************************************************************
------------------------------------------------------------------------------
                             ORCA STARTUP CALCULATIONS
                           -- RI-GTO INTEGRALS CHOSEN --
------------------------------------------------------------------------------
------------------------------------------------------------------------------
                   ___                                                        
                  /   \      - P O W E R E D   B Y -                         
                 /     \                                                     
                 |  |  |   _    _      __       _____    __    __             
                 |  |  |  | |  | |    /  \     |  _  \  |  |  /  |          
                  \  \/   | |  | |   /    \    | | | |  |  | /  /          
                 / \  \   | |__| |  /  /\  \   | |_| |  |  |/  /          
                |  |  |   |  __  | /  /__\  \  |    /   |      \           
                |  |  |   | |  | | |   __   |  |    \   |  |\   \          
                \     /   | |  | | |  |  |  |  | |\  \  |  | \   \       
                 \___/    |_|  |_| |__|  |__|  |_| \__\ |__|  \__/        
                                                                              
                      - O R C A' S   B I G   F R I E N D -                    
                                      &                                       
                       - I N T E G R A L  F E E D E R -                       
                                                                              
 v1 FN, 2020, v2 2021, v3 2022-2024                                           
------------------------------------------------------------------------------


----------------------
SHARK INTEGRAL PACKAGE
----------------------

Number of atoms                             ...     12
Number of basis functions                   ...     96
Number of shells                            ...     48
Maximum angular momentum                    ...      2
Integral batch strategy                     ... SHARK/LIBINT Hybrid
RI-J (if used) integral strategy            ... SPLIT-RIJ (Revised 2003 algorithm where possible)
Printlevel                                  ...      1
Contraction scheme used                     ... SEGMENTED contraction
Prescreening option                         ... SCHWARTZ
   Thresh                                   ... 2.500e-11
   Tcut                                     ... 2.500e-12
   Tpresel                                  ... 2.500e-12 
Coulomb Range Separation                    ... NOT USED
Exchange Range Separation                   ... NOT USED
Multipole approximations                    ... NOT USED
Finite Nucleus Model                        ... NOT USED
CABS basis                                  ... NOT available
Auxiliary Coulomb fitting basis             ... AVAILABLE
   # of basis functions in Aux-J            ...    284
   # of shells in Aux-J                     ...    100
   Maximum angular momentum in Aux-J        ...      4
Auxiliary J/K fitting basis                 ... NOT available
Auxiliary Correlation fitting basis         ... NOT available
Auxiliary 'external' fitting basis          ... NOT available

Checking pre-screening integrals            ... done (  0.0 sec) Dimension = 48
   => SHARK Basis and OBASIS are compatible. Storing Pre-screening
Shell pair information
Shell pair cut-off parameter TPreSel        ...   2.5e-12
Total number of shell pairs                 ...      1176
Shell pairs after pre-screening             ...      1148
Total number of primitive shell pairs       ...      3992
Primitive shell pairs kept                  ...      3163
          la=0 lb=0:    398 shell pairs
          la=1 lb=0:    437 shell pairs
          la=1 lb=1:    131 shell pairs
          la=2 lb=0:    110 shell pairs
          la=2 lb=1:     62 shell pairs
          la=2 lb=2:     10 shell pairs

Checking whether 4 symmetric matrices of dimension 96 fit in memory
:Max Core in MB      =   4096.00
 MB in use           =      4.73
 MB left             =   4091.27
 MB needed           =      0.14
 Data fit in memory  = YES
Calculating RI/J V-Matrix + Cholesky decomp.... done (  0.0 sec)
Calculating Nuclear repulsion               ... done (  0.0 sec) ENN=    109.158394529804 Eh

Diagonalization of the overlap matrix:
Smallest eigenvalue                        ... 1.974e-03
Time for diagonalization                   ...    0.002 sec
Threshold for overlap eigenvalues          ... 1.000e-07
Number of eigenvalues below threshold      ... 0
Time for construction of square roots      ...    0.001 sec
Total time needed                          ...    0.003 sec

-------------------
DFT GRID GENERATION
-------------------

General Integration Accuracy     IntAcc      ... 4.388
Radial Grid Type                 RadialGrid  ... OptM3 with GC (2021)
Angular Grid (max. ang.)         AngularGrid ... 4 (Lebedev-302)
Angular grid pruning method      GridPruning ... 4 (adaptive)
Weight generation scheme         WeightScheme... mBecke (2022)
Basis function cutoff            BFCut       ... 1.0000e-11
Integration weight cutoff        WCut        ... 1.0000e-14
Partially contracted basis set               ... off
Rotationally invariant grid construction     ... off
Angular grids for H and He will be reduced by one unit

Total number of grid points                  ...    50071
Total number of batches                      ...      788
Average number of points per batch           ...       63
Average number of grid points per atom       ...     4173

--------------------
COSX GRID GENERATION
--------------------

GRIDX 1
-------
General Integration Accuracy     IntAcc      ... 3.816
Radial Grid Type                 RadialGrid  ... OptM3 with GC (2021)
Angular Grid (max. ang.)         AngularGrid ... 1 (Lebedev-50)
Angular grid pruning method      GridPruning ... 4 (adaptive)
Weight generation scheme         WeightScheme... mBecke (2022)
Basis function cutoff            BFCut       ... 1.0000e-11
Integration weight cutoff        WCut        ... 1.0000e-14
Partially contracted basis set               ... on
Rotationally invariant grid construction     ... off
Angular grids for H and He will be reduced by one unit

Total number of grid points                  ...     6470
Total number of batches                      ...       58
Average number of points per batch           ...      111
Average number of grid points per atom       ...      539
UseSFitting                                  ... on

GRIDX 2
-------
General Integration Accuracy     IntAcc      ... 4.020
Radial Grid Type                 RadialGrid  ... OptM3 with GC (2021)
Angular Grid (max. ang.)         AngularGrid ... 2 (Lebedev-110)
Angular grid pruning method      GridPruning ... 4 (adaptive)
Weight generation scheme         WeightScheme... mBecke (2022)
Basis function cutoff            BFCut       ... 1.0000e-11
Integration weight cutoff        WCut        ... 1.0000e-14
Partially contracted basis set               ... on
Rotationally invariant grid construction     ... off
Angular grids for H and He will be reduced by one unit

Total number of grid points                  ...    13484
Total number of batches                      ...      112
Average number of points per batch           ...      120
Average number of grid points per atom       ...     1124
UseSFitting                                  ... on

GRIDX 3
-------
General Integration Accuracy     IntAcc      ... 4.338
Radial Grid Type                 RadialGrid  ... OptM3 with GC (2021)
Angular Grid (max. ang.)         AngularGrid ... 3 (Lebedev-194)
Angular grid pruning method      GridPruning ... 4 (adaptive)
Weight generation scheme         WeightScheme... mBecke (2022)
Basis function cutoff            BFCut       ... 1.0000e-11
Integration weight cutoff        WCut        ... 1.0000e-14
Partially contracted basis set               ... on
Rotationally invariant grid construction     ... off
Angular grids for H and He will be reduced by one unit

Total number of grid points                  ...    29507
Total number of batches                      ...      237
Average number of points per batch           ...      124
Average number of grid points per atom       ...     2459
UseSFitting                                  ... on
Grids setup in   0.6 sec
Initializing property integral containers    ... done (  0.0 sec)

SHARK setup successfully completed in   0.7 seconds

Maximum memory used throughout the entire STARTUP-calculation: 14.0 MB


           ************************************************************
           *        Program running with 6 parallel MPI-processes     *
           *              working on a common directory               *
           ************************************************************
-------------------------------------------------------------------------------
                                 ORCA GUESS
                   Start orbitals & Density for SCF / CASSCF
-------------------------------------------------------------------------------

------------
SCF SETTINGS
------------
Hamiltonian:
 Density Functional     Method          .... DFT(GTOs)
 Exchange Functional    Exchange        .... B88
   X-Alpha parameter    XAlpha          ....  0.666667
   Becke's b parameter  XBeta           ....  0.004200
 Correlation Functional Correlation     .... LYP
 LDA part of GGA corr.  LDAOpt          .... VWN-5
 Gradients option       PostSCFGGA      .... off
 Hybrid DFT is turned on
   Fraction HF Exchange ScalHFX         ....  0.200000
   Scaling of DF-GGA-X  ScalDFX         ....  0.720000
   Scaling of DF-GGA-C  ScalDFC         ....  0.810000
   Scaling of DF-LDA-C  ScalLDAC        ....  1.000000
   Perturbative correction              ....  0.000000
   NL short-range parameter             ....  4.800000
 RI-approximation to the Coulomb term is turned on
   Number of AuxJ basis functions       .... 284
   RIJ-COSX (HFX calculated with COS-X)).... on


General Settings:
 Integral files         IntName         .... orca
 Hartree-Fock type      HFTyp           .... RHF
 Total Charge           Charge          ....    0
 Multiplicity           Mult            ....    1
 Number of Electrons    NEL             ....   32
 Basis Dimension        Dim             ....   96
 Nuclear Repulsion      ENuc            ....    109.1583945298 Eh

Convergence Acceleration:
 AO-DIIS                CNVDIIS         .... on
   Start iteration      DIISMaxIt       ....    12
   Startup error        DIISStart       ....  0.200000
   # of expansion vecs  DIISMaxEq       ....     5
   Bias factor          DIISBfac        ....   1.050
   Max. coefficient     DIISMaxC        ....  10.000
 MO-DIIS                CNVKDIIS        .... off
 Trust-Rad. Augm. Hess. CNVTRAH         .... auto
   Auto Start mean grad. ratio tolernc. ....  1.125000
   Auto Start start iteration           ....    50
   Auto Start num. interpolation iter.  ....    10
   Max. Number of Micro iterations      ....    24
   Max. Number of Macro iterations      .... Maxiter - #DIIS iter
   Number of Davidson start vectors     ....     2
   Converg. threshold    (grad. norm)   ....   1.000e-05
   Grad. Scal. Fac. for Micro threshold ....   0.100
   Minimum threshold for Micro iter.    ....   1.000e-02
   NR start threshold (gradient norm)   ....   1.000e-04
   Initial trust radius                 ....   0.400
   Minimum AH scaling param. (alpha)    ....   1.000
   Maximum AH scaling param. (alpha)    .... 1000.000
   Quad. conv. algorithm                .... NR
   White noise on init. David. guess    .... on
   Maximum white noise                  ....   0.010
   Pseudo random numbers                .... off
   Inactive MOs                         .... canonical
   Orbital update algorithm             .... Taylor
   Preconditioner                       .... Diag
   Full preconditioner red. dimension   ....   250
 SOSCF                 CNVSOSCF           .... on
   Start iteration     SOSCFMaxIt         ....   150
   Startup grad/error  SOSCFStart         ....  0.003300
   Hessian update      SOSCFHessUp        .... L-BFGS
   Autom. constraints  SOSCFAutoConstrain .... off
 Level Shifting         CNVShift        .... on
   Level shift para.    LevelShift      ....    0.2500
   Turn off err/grad.   ShiftErr        ....    0.0010
 Zerner damping         CNVZerner       .... off
 Static damping         CNVDamp         .... on
   Fraction old density DampFac         ....    0.7000
   Max. Damping (<1)    DampMax         ....    0.9800
   Min. Damping (>=0)   DampMin         ....    0.0000
   Turn off err/grad.   DampErr         ....    0.1000

SCF Procedure:
 Maximum # iterations   MaxIter         ....   125
 SCF integral mode      SCFMode         .... Direct
   Integral package                     .... SHARK and LIBINT hybrid scheme
 Reset frequency        DirectResetFreq ....    20
 Integral Threshold     Thresh          ....  2.500e-11 Eh
 Primitive CutOff       TCut            ....  2.500e-12 Eh

Convergence Tolerance:
 Convergence Check Mode ConvCheckMode   .... Total+1el-Energy
 Convergence forced     ConvForced      .... 0
 Energy Change          TolE            ....  1.000e-08 Eh
 1-El. energy change                    ....  1.000e-05 Eh
 Orbital Gradient       TolG            ....  1.000e-05
 Orbital Rotation angle TolX            ....  1.000e-05
 DIIS Error             TolErr          ....  5.000e-07

------------------------------
INITIAL GUESS: MODEL POTENTIAL
------------------------------
Loading Hartree-Fock densities                     ... done
Calculating cut-offs                               ... done
Initializing the effective Hamiltonian             ... done
Setting up the integral package (SHARK)            ... done
Starting the Coulomb interaction                   ... done (   0.0 sec)
Making the grid                                    ... done (   0.1 sec)
Mapping shells                                     ... done
Starting the XC term evaluation                    ... done (   0.0 sec)
  promolecular density results
     # of electrons  =     31.995067803
     EX              =    -23.157840547
     EC              =     -1.000681851
     EX+EC           =    -24.158522398
Transforming the Hamiltonian                       ... done (   0.0 sec)
Diagonalizing the Hamiltonian                      ... done (   0.0 sec)
Back transforming the eigenvectors                 ... done (   0.0 sec)
Now organizing SCF variables                       ... done
                      ------------------
                      INITIAL GUESS DONE (   0.1 sec)
                      ------------------
             **** ENERGY FILE WAS UPDATED (orca.en.tmp) ****
Finished Guess after   0.2 sec
Maximum memory used throughout the entire GUESS-calculation: 7.1 MB


           ************************************************************
           *        Program running with 6 parallel MPI-processes     *
           *              working on a common directory               *
           ************************************************************

-------------------------------------------------------------------------------------------
                                      ORCA LEAN-SCF
                              memory conserving SCF solver
-------------------------------------------------------------------------------------------

----------------------------------------D-I-I-S--------------------------------------------
Iteration    Energy (Eh)           Delta-E    RMSDP     MaxDP     DIISErr   Damp  Time(sec)
-------------------------------------------------------------------------------------------
               ***  Starting incremental Fock matrix formation  ***
    1    -163.5397345218984242     0.00e+00  1.43e-02  9.23e-02  2.66e-01  0.700   0.4
    2    -163.6458890363702494    -1.06e-01  1.04e-02  5.60e-02  1.21e-01  0.700   0.3
                               ***Turning on AO-DIIS***
    3    -163.6874616515584080    -4.16e-02  4.21e-03  2.62e-02  3.45e-02  0.700   0.3
    4    -163.7122160052503546    -2.48e-02  6.41e-03  3.75e-02  1.79e-02  0.000   0.3
    5    -163.7662195193315142    -5.40e-02  1.66e-03  8.95e-03  7.72e-03  0.000   0.3
                              *** Initializing SOSCF ***
---------------------------------------S-O-S-C-F--------------------------------------
Iteration    Energy (Eh)           Delta-E    RMSDP     MaxDP     MaxGrad    Time(sec)
--------------------------------------------------------------------------------------
    6    -163.7666476829635940    -4.28e-04  4.93e-04  2.12e-03  1.79e-03     0.3
               *** Restarting incremental Fock matrix formation ***
    7    -163.7666415258361212     6.16e-06  3.20e-04  1.38e-03  3.04e-04     0.4
    8    -163.7666431575477759    -1.63e-06  8.48e-05  6.56e-04  2.30e-04     0.3
    9    -163.7666446209448168    -1.46e-06  3.93e-05  3.10e-04  7.20e-05     0.3
   10    -163.7666445987440511     2.22e-08  1.84e-05  1.66e-04  9.17e-05     0.3
   11    -163.7666447051671526    -1.06e-07  4.46e-06  3.05e-05  5.72e-06     0.3
   12    -163.7666447083489061    -3.18e-09  1.70e-06  9.32e-06  2.51e-06     0.3
                 **** Energy Check signals convergence ****

               *****************************************************
               *                     SUCCESS                       *
               *           SCF CONVERGED AFTER  12 CYCLES          *
               *****************************************************

Recomputing exchange energy using gridx3       ... done (    0.514 sec)
Old exchange energy                            :     -4.753391941 Eh
New exchange energy                            :     -4.753374543 Eh
Exchange energy change after final integration :      0.000017398 Eh
Total energy after final integration           :   -163.766627308 Eh
             **** ENERGY FILE WAS UPDATED (orca.en.tmp) ****

----------------
TOTAL SCF ENERGY
----------------

Total Energy       :       -163.76662730833803 Eh           -4456.31648 eV

Components:
Nuclear Repulsion  :        109.15839452980379 Eh            2970.35092 eV
Electronic Energy  :       -272.92503923652163 Eh           -7426.66788 eV
One Electron Energy:       -435.99196218793998 Eh          -11863.94444 eV
Two Electron Energy:        163.06692295141835 Eh            4437.27656 eV

Virial components:
Potential Energy   :       -325.67332041763615 Eh           -8862.02159 eV
Kinetic Energy     :        161.90669310929812 Eh            4405.70510 eV
Virial Ratio       :          2.01148769185091

DFT components:
N(Alpha)           :       16.000020872087 electrons
N(Beta)            :       16.000020872087 electrons
N(Total)           :       32.000041744174 electrons
E(X)               :      -18.850172621190 Eh       
E(C)               :       -1.199124509372 Eh       
E(XC)              :      -20.049297130562 Eh       

---------------
SCF CONVERGENCE
---------------

  Last Energy change         ...    3.1818e-09  Tolerance :   1.0000e-08
  Last MAX-Density change    ...    9.3233e-06  Tolerance :   1.0000e-07
  Last RMS-Density change    ...    1.7033e-06  Tolerance :   5.0000e-09
  Last DIIS Error            ...    1.7905e-03  Tolerance :   5.0000e-07
  Last Orbital Gradient      ...    2.5052e-06  Tolerance :   1.0000e-05
  Last Orbital Rotation      ...    3.2659e-06  Tolerance :   1.0000e-05


----------------
ORBITAL ENERGIES
----------------

  NO   OCC          E(Eh)            E(eV) 
   0   2.0000     -14.322891      -389.7457 
   1   2.0000     -14.312294      -389.4573 
   2   2.0000      -6.736507      -183.3097 
   3   2.0000      -6.717002      -182.7789 
   4   2.0000      -0.849244       -23.1091 
   5   2.0000      -0.842453       -22.9243 
   6   2.0000      -0.577529       -15.7154 
   7   2.0000      -0.505149       -13.7458 
   8   2.0000      -0.493047       -13.4165 
   9   2.0000      -0.485556       -13.2126 
  10   2.0000      -0.406353       -11.0574 
  11   2.0000      -0.368189       -10.0189 
  12   2.0000      -0.313612        -8.5338 
  13   2.0000      -0.306687        -8.3454 
  14   2.0000      -0.281191        -7.6516 
  15   2.0000      -0.218162        -5.9365 
  16   0.0000      -0.003662        -0.0996 
  17   0.0000       0.056746         1.5441 
  18   0.0000       0.071382         1.9424 
  19   0.0000       0.108007         2.9390 
  20   0.0000       0.120199         3.2708 
  21   0.0000       0.138972         3.7816 
  22   0.0000       0.162185         4.4133 
  23   0.0000       0.175695         4.7809 
  24   0.0000       0.208604         5.6764 
  25   0.0000       0.221058         6.0153 
  26   0.0000       0.234782         6.3888 
*Only the first 10 virtual orbitals were printed.

                    ********************************
                    * MULLIKEN POPULATION ANALYSIS *
                    ********************************

-----------------------
MULLIKEN ATOMIC CHARGES
-----------------------
   0 N :   -0.183383
   1 B :   -0.092670
   2 N :   -0.017776
   3 B :   -0.231944
   4 H :    0.119007
   5 H :   -0.082333
   6 H :   -0.055362
   7 H :    0.122113
   8 H :    0.118437
   9 H :    0.116245
  10 H :   -0.042997
  11 H :    0.230662
Sum of atomic charges:    0.0000000

--------------------------------
MULLIKEN REDUCED ORBITAL CHARGES
--------------------------------
  0 N s       :     3.369431  s :     3.369431
      pz      :     1.164821  p :     3.802473
      px      :     1.558400
      py      :     1.079252
      dz2     :     0.002124  d :     0.011479
      dxz     :     0.002382
      dyz     :     0.002954
      dx2y2   :     0.002426
      dxy     :     0.001594

  1 B s       :     2.876968  s :     2.876968
      pz      :     0.818113  p :     2.146024
      px      :     0.680635
      py      :     0.647275
      dz2     :     0.012201  d :     0.069678
      dxz     :     0.008695
      dyz     :     0.017831
      dx2y2   :     0.013716
      dxy     :     0.017236

  2 N s       :     3.281531  s :     3.281531
      pz      :     1.555963  p :     3.723915
      px      :     1.054209
      py      :     1.113744
      dz2     :     0.001053  d :     0.012330
      dxz     :     0.000332
      dyz     :     0.001073
      dx2y2   :     0.003728
      dxy     :     0.006144

  3 B s       :     3.027001  s :     3.027001
      pz      :     0.442858  p :     2.131258
      px      :     0.887635
      py      :     0.800766
      dz2     :     0.005702  d :     0.073685
      dxz     :     0.003388
      dyz     :     0.018235
      dx2y2   :     0.025599
      dxy     :     0.020760

  4 H s       :     0.834287  s :     0.834287
      pz      :     0.012079  p :     0.046705
      px      :     0.023287
      py      :     0.011339

  5 H s       :     1.069975  s :     1.069975
      pz      :     0.002261  p :     0.012358
      px      :     0.006773
      py      :     0.003324

  6 H s       :     1.042511  s :     1.042511
      pz      :     0.008964  p :     0.012851
      px      :     0.002225
      py      :     0.001662

  7 H s       :     0.831991  s :     0.831991
      pz      :     0.013653  p :     0.045895
      px      :     0.012926
      py      :     0.019316

  8 H s       :     0.835364  s :     0.835364
      pz      :     0.020721  p :     0.046200
      px      :     0.015929
      py      :     0.009550

  9 H s       :     0.837186  s :     0.837186
      pz      :     0.012967  p :     0.046569
      px      :     0.015938
      py      :     0.017664

 10 H s       :     1.031132  s :     1.031132
      pz      :     0.001166  p :     0.011865
      px      :     0.009563
      py      :     0.001136

 11 H s       :     0.716869  s :     0.716869
      pz      :     0.008228  p :     0.052469
      px      :     0.012738
      py      :     0.031502



                     *******************************
                     * LOEWDIN POPULATION ANALYSIS *
                     *******************************

----------------------
LOEWDIN ATOMIC CHARGES
----------------------
   0 N :   -0.023133
   1 B :   -0.287578
   2 N :    0.069862
   3 B :   -0.139786
   4 H :    0.082905
   5 H :   -0.041510
   6 H :   -0.008510
   7 H :    0.073787
   8 H :    0.072926
   9 H :    0.080581
  10 H :   -0.037164
  11 H :    0.157620

-------------------------------
LOEWDIN REDUCED ORBITAL CHARGES
-------------------------------
  0 N s       :     3.068684  s :     3.068684
      pz      :     1.236517  p :     3.922401
      px      :     1.539294
      py      :     1.146591
      dz2     :     0.006167  d :     0.032047
      dxz     :     0.006129
      dyz     :     0.008717
      dx2y2   :     0.006542
      dxy     :     0.004493

  1 B s       :     2.695211  s :     2.695211
      pz      :     0.858509  p :     2.398976
      px      :     0.815950
      py      :     0.724517
      dz2     :     0.038579  d :     0.193391
      dxz     :     0.025008
      dyz     :     0.037993
      dx2y2   :     0.036253
      dxy     :     0.055557

  2 N s       :     3.026426  s :     3.026426
      pz      :     1.477372  p :     3.869977
      px      :     1.156837
      py      :     1.235768
      dz2     :     0.001661  d :     0.033735
      dxz     :     0.000891
      dyz     :     0.002534
      dx2y2   :     0.011539
      dxy     :     0.017110

  3 B s       :     2.750738  s :     2.750738
      pz      :     0.462337  p :     2.204143
      px      :     0.918598
      py      :     0.823209
      dz2     :     0.014450  d :     0.184905
      dxz     :     0.007266
      dyz     :     0.047637
      dx2y2   :     0.067559
      dxy     :     0.047993

  4 H s       :     0.798702  s :     0.798702
      pz      :     0.034720  p :     0.118393
      px      :     0.061970
      py      :     0.021703

  5 H s       :     1.010316  s :     1.010316
      pz      :     0.006741  p :     0.031194
      px      :     0.015745
      py      :     0.008709

  6 H s       :     0.975871  s :     0.975871
      pz      :     0.020297  p :     0.032638
      px      :     0.006449
      py      :     0.005892

  7 H s       :     0.802063  s :     0.802063
      pz      :     0.032264  p :     0.124150
      px      :     0.036186
      py      :     0.055700

  8 H s       :     0.802841  s :     0.802841
      pz      :     0.055781  p :     0.124233
      px      :     0.048043
      py      :     0.020410

  9 H s       :     0.800830  s :     0.800830
      pz      :     0.037378  p :     0.118589
      px      :     0.037374
      py      :     0.043837

 10 H s       :     1.004770  s :     1.004770
      pz      :     0.003691  p :     0.032395
      px      :     0.021750
      py      :     0.006954

 11 H s       :     0.664020  s :     0.664020
      pz      :     0.029436  p :     0.178360
      px      :     0.036175
      py      :     0.112750



                      *****************************
                      * MAYER POPULATION ANALYSIS *
                      *****************************

  NA   - Mulliken gross atomic population
  ZA   - Total nuclear charge
  QA   - Mulliken gross atomic charge
  VA   - Mayer's total valence
  BVA  - Mayer's bonded valence
  FA   - Mayer's free valence

  ATOM       NA         ZA         QA         VA         BVA        FA
  0 N      7.1834     7.0000    -0.1834     3.2753     3.2753     0.0000
  1 B      5.0927     5.0000    -0.0927     3.6866     3.6866     0.0000
  2 N      7.0178     7.0000    -0.0178     3.5325     3.5325     0.0000
  3 B      5.2319     5.0000    -0.2319     3.6127     3.6127    -0.0000
  4 H      0.8810     1.0000     0.1190     0.9954     0.9954    -0.0000
  5 H      1.0823     1.0000    -0.0823     0.9602     0.9602     0.0000
  6 H      1.0554     1.0000    -0.0554     0.9661     0.9661     0.0000
  7 H      0.8779     1.0000     0.1221     0.9960     0.9960     0.0000
  8 H      0.8816     1.0000     0.1184     0.9971     0.9971     0.0000
  9 H      0.8838     1.0000     0.1162     0.9922     0.9922     0.0000
 10 H      1.0430     1.0000    -0.0430     0.9555     0.9555     0.0000
 11 H      0.7693     1.0000     0.2307     0.9964     0.9964     0.0000

  Mayer bond orders larger than 0.100000
B(  0-N ,  1-B ) :   0.8469 B(  0-N ,  7-H ) :   0.9594 B(  0-N ,  8-H ) :   0.9677 
B(  0-N , 11-H ) :   0.4442 B(  1-B ,  3-B ) :   0.6588 B(  1-B ,  5-H ) :   0.9567 
B(  1-B ,  6-H ) :   0.9216 B(  1-B , 11-H ) :   0.2855 B(  2-N ,  3-B ) :   1.6275 
B(  2-N ,  4-H ) :   0.9467 B(  2-N ,  9-H ) :   0.9538 B(  3-B , 10-H ) :   0.9334 
B(  3-B , 11-H ) :   0.2651 

-------
TIMINGS
-------

Total SCF time: 0 days 0 hours 0 min 4 sec 

Total time                  ....       4.643 sec
Sum of individual times     ....       4.324 sec  ( 93.1%)

SCF preparation             ....       0.145 sec  (  3.1%)
Fock matrix formation       ....       4.015 sec  ( 86.5%)
  Startup                   ....       0.003 sec  (  0.1% of F)
  Split-RI-J                ....       0.296 sec  (  7.4% of F)
  Chain of spheres X        ....       2.928 sec  ( 72.9% of F)
  XC integration            ....       0.962 sec  ( 24.0% of F)
    XC Preparation          ....       0.000 sec  (  0.0% of XC)
    Basis function eval.    ....       0.262 sec  ( 27.2% of XC)
    Density eval.           ....       0.125 sec  ( 13.0% of XC)
    XC-Functional eval.     ....       0.062 sec  (  6.5% of XC)
    XC-Potential eval.      ....       0.141 sec  ( 14.6% of XC)
Diagonalization             ....       0.000 sec  (  0.0%)
Density matrix formation    ....       0.022 sec  (  0.5%)
Total Energy calculation    ....       0.013 sec  (  0.3%)
Population analysis         ....       0.010 sec  (  0.2%)
Orbital Transformation      ....       0.011 sec  (  0.2%)
Orbital Orthonormalization  ....       0.000 sec  (  0.0%)
DIIS solution               ....       0.058 sec  (  1.2%)
SOSCF solution              ....       0.049 sec  (  1.1%)
Finished LeanSCF after   4.7 sec

Maximum memory used throughout the entire LEANSCF-calculation: 8.6 MB


-------------------------------------------------------------------------------
                          DFT DISPERSION CORRECTION                            
                                                                               
                              DFTD3 V3.1  Rev 1                                
                          USING Becke-Johnson damping                          
-------------------------------------------------------------------------------
The B3LYP functional is recognized
Active option DFTDOPT                   ...         4   

molecular C6(AA) [au] = 1074.728825 


            DFT-D V3
 parameters
 s6 scaling factor         :     1.0000 
 a1 scaling factor         :     0.3981 
 s8 scaling factor         :     1.9889 
 a2 scaling factor         :     4.4211 
 ad hoc parameters k1-k3   :    16.0000     1.3333    -4.0000 

 Edisp/kcal,au: -7.715964681706  -0.012296171098 
 E6   /kcal   :  -3.753906691 
 E8   /kcal   :  -3.962057991 
 % E8         :  51.348835232 

-------------------------   ----------------
Dispersion correction           -0.012296171
-------------------------   ----------------


-------------------------   --------------------
FINAL SINGLE POINT ENERGY      -163.778923479436
-------------------------   --------------------



           ************************************************************
           *        Program running with 6 parallel MPI-processes     *
           *              working on a common directory               *
           ************************************************************
------------------------------------------------------------------------------
                         ORCA SCF GRADIENT CALCULATION
------------------------------------------------------------------------------

Nuc. rep. gradient        (SHARK) ... done (  0.0 sec)
HCore & Overlap gradient  (SHARK) ... done (  0.0 sec)
Split-RIJ-J gradient      (SHARK) ... done (  0.2 sec)
done (  2.2 sec)
XC gradient                       ... done (  0.4 sec)
Dispersion correction             ... done (  0.1 sec)

-------------------
DISPERSION GRADIENT
-------------------

   1   N   :    0.000084099    0.000331379    0.000136385
   2   B   :    0.000177506    0.000164558   -0.000055007
   3   N   :   -0.000117256   -0.000412013   -0.000030507
   4   B   :   -0.000228297   -0.000183309   -0.000071930
   5   H   :    0.000039210   -0.000239534    0.000004642
   6   H   :    0.000190795    0.000014139   -0.000000392
   7   H   :    0.000106286    0.000088453   -0.000144365
   8   H   :    0.000012478    0.000221993    0.000033288
   9   H   :    0.000057908    0.000160696    0.000144487
  10   H   :   -0.000057417   -0.000176744   -0.000021015
  11   H   :   -0.000216483   -0.000055708   -0.000031722
  12   H   :   -0.000048827    0.000086090    0.000036135

Difference to translation invariance:
           :    0.0000000000    0.0000000000    0.0000000000

Difference to rotation invariance:
           :   -0.0000000000    0.0000000000    0.0000000000

Norm of the Dispersion gradient    ...    0.0008975409
RMS gradient                       ...    0.0001495902
MAX gradient                       ...    0.0004120128

------------------
CARTESIAN GRADIENT
------------------

   1   N   :   -0.000010979   -0.000065477    0.000059318
   2   B   :    0.000005410   -0.000053822   -0.000068008
   3   N   :   -0.000021671    0.000025569   -0.000071389
   4   B   :    0.000001017    0.000050348   -0.000056593
   5   H   :    0.000011379    0.000002277    0.000026267
   6   H   :   -0.000028165   -0.000024353   -0.000017979
   7   H   :   -0.000008550   -0.000012218    0.000032423
   8   H   :    0.000057379    0.000009939   -0.000008879
   9   H   :   -0.000060833    0.000048314   -0.000008454
  10   H   :    0.000043334    0.000029874    0.000043548
  11   H   :    0.000002522   -0.000060137    0.000030006
  12   H   :    0.000009155    0.000049687    0.000039741

Difference to translation invariance:
           :   -0.0000000000   -0.0000000000    0.0000000000

Difference to rotation invariance:
           :    0.0000029446   -0.0000414009    0.0000559666

Norm of the Cartesian gradient     ...    0.0002326845
RMS gradient                       ...    0.0000387808
MAX gradient                       ...    0.0000713887

-------
TIMINGS
-------

Total SCF gradient time     ....        2.861 sec

Densities                   ....       0.000 sec  (  0.0%)
One electron gradient       ....       0.023 sec  (  0.8%)
RI-J Coulomb gradient       ....       0.159 sec  (  5.6%)
COSX gradient               ....       2.189 sec  ( 76.5%)
XC gradient                 ....       0.435 sec  ( 15.2%)

Maximum memory used throughout the entire SCFGRAD-calculation: 27.0 MB


           ************************************************************
           *        Program running with 6 parallel MPI-processes     *
           *              working on a common directory               *
           ************************************************************

------------------------------------------------------------------------------
                              ORCA PROPERTY CALCULATIONS
------------------------------------------------------------------------------

GBWName                                 ... orca.gbw
Number of atoms                         ...     12
Number of basis functions               ...     96
Max core memory                         ...   4096 MB

Electric properties:
Dipole moment                           ... YES
Quadrupole moment                       ...  NO
Static polarizability (Dipole/Dipole)   ...  NO
Static polarizability (Dipole/Quad.)    ...  NO
Static polarizability (Quad./Quad.)     ...  NO
Static polarizability (Velocity)        ...  NO
Static hyperpolarizability              ...  NO

Atomic electric properties:
Dipole moment                           ...  NO
Quadrupole moment                       ...  NO
Static polarizability                   ...  NO

Choice of electric origin               ... Center of mass
Position of electric origin             ...    -0.101301    -0.143158     0.044760

General magnetic properties:
Magnetizability                         ...  NO

EPR properties:
g-Tensor (aka g-matrix)                 ...  NO
Zero-Field splitting spin-orbit         ...  NO
Zero-field splitting spin-spin          ...  NO
Hyperfine couplings                     ...  NO (   0 nuclei)
Quadrupole couplings                    ...  NO (   0 nuclei)
Contact density                         ...  NO (   0 nuclei)

NMR properties:
Chemical shifts                         ...  NO (   0 nuclei)
Spin-rotation constants                 ...  NO (   0 nuclei)
Spin-spin couplings                     ...  NO (   0 nuclei,    0 pairs)

Choice of magnetic origin               ... GIAO
Position of magnetic origin             ...     0.000000     0.000000     0.000000

Properties with geometric perturbations:
SCF Hessian                             ...  NO
IR spectrum                             ...  NO
VCD spectrum                            ...  NO
X-ray spectroscopy properties:
SCF XES/XAS/RIXS spectra                ...  NO

SCF SOC stabilization energy            ...  NO
Diagonal Born-Oppenheimer correction    ...  NO

-------------
DIPOLE MOMENT
-------------

Method             : SCF
Type of density    : Electron Density
Multiplicity       :   1
Irrep              :   0
Energy             :  -163.7666273083380304 Eh
Basis              : AO
                                X                 Y                 Z
Electronic contribution:     -0.750831002      -1.088071366       0.227286059
Nuclear contribution   :      0.674381283       0.937695557       0.169391474
                        -----------------------------------------
Total Dipole Moment    :     -0.076449720      -0.150375809       0.396677533
                        -----------------------------------------
Magnitude (a.u.)       :      0.431057431
Magnitude (Debye)      :      1.095660916



--------------------
Rotational spectrum 
--------------------
 
Rotational constants in cm-1:             0.761688             0.110537             0.104240 
Rotational constants in MHz :         22834.825806          3313.805384          3125.039789 

Dipole components along the rotational axes: 
x,y,z [a.u.] :    -0.076590    -0.096738     0.413021 
x,y,z [Debye]:    -0.194676    -0.245889     1.049816 

 

Dipole moment calculation done in   0.0 sec 

Maximum memory used throughout the entire PROP-calculation: 5.1 MB

--------------------------------
SUGGESTED CITATIONS FOR THIS RUN
--------------------------------

Below you find a list of papers that are relevant to this ORCA run
We neither can nor want to force you to cite these papers, but we appreciate if you do
You receive ORCA, which is the product of decades of hard work by many enthusiastic individuals, for free
The only thing we kindly ask in return is that you cite our papers,
We deeply appreciate it, if you show your appreciation for ORCA by not just citing the generic ORCA reference.

Please note that relegating all ORCA citations to the supporting information does *not* help us.
SI sections are not indexed - citations you put there will not count into any citation statistics
But we need these citations in order to attract the funding resources that allow us to do what we are doing

Therefore, if you are a happy ORCA user, please consider citing a few of the papers listed below in the main body of your paper

In addition to the list printed below, the program has created the file orca.bibtex that contains the list in bibtex format
You can import this file easily into all common literature databanks and citation aid programs


List of essential papers. We consider these as the minimum necessary citations

  1. Neese, F.
     Software update: the ORCA program system, version 6.0
     WIRES Comput. Molec. Sci. 2025 15(1), e70019
     doi.org/10.1002/wcms.7019

List of papers to cite with high priority. The work reported in these papers was absolutely
necessary for this run to complete.
Our perspective: the developers of density functionals and basis sets usually get cited in chemistry papers
Good! But without the algorithms to do something with them, the functionals or basis sets would not do anything.
Hence, in our opinion, the algorithm design and method developments papers are equally worthy of getting cited

  1. Neese, F.
     An improvement of the resolution of the identity approximation for the formation of the Coulomb matrix
     J. Comp. Chem. 2003 24(14), 1740-1747
     doi.org/10.1002/jcc.10318
  2. Neese, F.; Wennmohs, F.; Hansen, A.; Becker, U.
     Efficient, approximate and parallel Hartree-Fock and hybrid DFT calculations. A 'chain-of-spheres' algorithm for the Hartree-Fock exchange
     Chem. Phys. 2009 356(1-3), 98-109
     doi.org/10.1016/j.chemphys.2008.10.036
  3. Grimme, S.; Antony, J.; Ehrlich, S.; Krieg, H.
     A consistent and accurate ab initio parametrization of density functional dispersion correction (DFT-D) for the 94 elements H-Pu
     J. Chem. Phys. 2010 132 , 154104
     doi.org/10.1063/1.3382344
  4. Grimme, S.; Ehrlich, S.; Goerigk, L.
     Effect of the damping function in dispersion corrected density functional theory
     J. Comput. Chem. 2011 32(7), 1456-1465
     doi.org/10.1002/jcc.21759
  5. Helmich-Paris, B.; de Souza, B.; Neese, F.; Izsák, R.
     An improved chain of spheres for exchange algorithm
     J. Chem. Phys. 2021 155(10), 104109
     doi.org/10.1063/5.0058766
  6. Neese, F.
     The SHARK Integral Generation and Digestion System
     J. Comp. Chem. 2022 44(3), 381
     doi.org/10.1002/jcc.26942

List of suggested additional citations. These are papers that are important in the 'surrounding' of 
of this run, or papers that preceded the highly important papers. If you like your results we are grateful for a citation.

  1. Izsak, R.; Neese, F.
     An overlap fitted chain of spheres exchange method
     J. Chem. Phys. 2011 135 , 144105
     doi.org/10.1063/1.3646921
  2. Izsak, R.; Hansen, A.; Neese, F.
     The resolution of identity and chain of spheres approximations for the LPNO-CCSD singles Fock term
     Molec. Phys. 2012 110 , 2413-2417
     doi.org/10.1080/00268976.2012.687466
  3. Neese, F.
     The ORCA program system
     WIRES Comput. Molec. Sci. 2012 2(1), 73-78
     doi.org/10.1002/wcms.81
  4. Izsak, R.; Neese, F.; Klopper, W.
     Robust fitting techniques in the chain of spheres approximation to the Fock exchange: The role of the complementary space
     J. Chem. Phys. 2013 139 , 
     doi.org/10.1063/1.4819264
  5. Neese, F.
     Software update: the ORCA program system, version 4.0
     WIRES Comput. Molec. Sci. 2018 8(1), 1-6
     doi.org/10.1002/wcms.1327
  6. Neese, F.; Wennmohs, F.; Becker, U.; Riplinger, C.
     The ORCA quantum chemistry program package
     J. Chem. Phys. 2020 152(22), 224108
     doi.org/10.1063/5.0004608
  7. Neese, F.
     Software update: The ORCA program system—Version 5.0
     WIRES Comput. Molec. Sci. 2022 12(1), e1606
     doi.org/10.1002/wcms.1606

List of optional additional citations

  1. Neese, F.
     Approximate second-order SCF convergence for spin unrestricted wavefunctions
     Chem. Phys. Lett. 2000 325(1-3), 93-98
     doi.org/10.1016/s0009-2614(00)00662-x

Timings for individual modules:

Sum of individual times          ...       10.522 sec (=   0.175 min)
Startup calculation              ...        1.226 sec (=   0.020 min)  11.7 %
SCF iterations                   ...        5.521 sec (=   0.092 min)  52.5 %
Property calculations            ...        0.449 sec (=   0.007 min)   4.3 %
SCF Gradient evaluation          ...        3.325 sec (=   0.055 min)  31.6 %
                             ****ORCA TERMINATED NORMALLY****
TOTAL RUN TIME: 0 days 0 hours 0 minutes 11 seconds 67 msec
