
                                 *****************
                                 * O   R   C   A *
                                 *****************

                                            #,                                       
                                            ###                                      
                                            ####                                     
                                            #####                                    
                                            ######                                   
                                           ########,                                 
                                     ,,################,,,,,                         
                               ,,#################################,,                 
                          ,,##########################################,,             
                       ,#########################################, ''#####,          
                    ,#############################################,,   '####,        
                  ,##################################################,,,,####,       
                ,###########''''           ''''###############################       
              ,#####''   ,,,,##########,,,,          '''####'''          '####       
            ,##' ,,,,###########################,,,                        '##       
           ' ,,###''''                  '''############,,,                           
         ,,##''                                '''############,,,,        ,,,,,,###''
      ,#''                                            '''#######################'''  
     '                                                          ''''####''''         
             ,#######,   #######,   ,#######,      ##                                
            ,#'     '#,  ##    ##  ,#'     '#,    #''#        ,####,    ,#,          
            ##       ##  ##   ,#'  ##            #'  '#       #'       ,# #          
            ##       ##  #######   ##           ,######,      #####,      #          
            '#,     ,#'  ##    ##  '#,     ,#' ,#      #,     #,   #      #          
             '#######'   ##     ##  '#######'  #'      '#     '####' #    #          



                #########################################################
                #                        -***-                          #
                #          Department of theory and spectroscopy        #
                #                                                       #
                #                      Frank Neese                      #
                #                                                       #
                #     Directorship, Architecture, Infrastructure        #
                #                    SHARK, DRIVERS                     #
                #        Core code/Algorithms in most modules           #
                #                                                       #
                #        Max Planck Institute fuer Kohlenforschung      #
                #                Kaiser Wilhelm Platz 1                 #
                #                 D-45470 Muelheim/Ruhr                 #
                #                      Germany                          #
                #                                                       #
                #                  All rights reserved                  #
                #                        -***-                          #
                #########################################################


                         Program Version 6.1.0  -  RELEASE   -
                                (GIT: $679e74b$)
                          ($2025-06-10 18:02:51 +0200$)


 With contributions from (in alphabetic order):
[Max-Planck-Institut fuer Kohlenforschung]                               
  Daniel Aravena         : Magnetic Suceptibility                        
  Michael Atanasov       : Ab Initio Ligand Field Theory (pilot matlab implementation)
  Alexander A. Auer      : GIAO ZORA, VPT2 properties, NMR spectrum      
  Ute Becker             : All parallelization in ORCA, NUMFREQ, NUMCALC 
  Giovanni Bistoni       : ED, misc. LED, open-shell LED, HFLD           
  Dmytro Bykov           : pre 5.0 version of the SCF Hessian            
  Marcos Casanova-Páez   : Triplet and SCS-CIS(D). UHF-(DLPNO)-IP/EA/STEOM-CCSD. UHF-CVS-IP/STEOM-CCSD   
  Vijay G. Chilkuri      : MRCI spin determinant printing, contributions to CSF-ICE 
  Pauline Colinet        : FMM embedding                                 
  Dipayan Datta          : RHF DLPNO-CCSD density                        
  Achintya Kumar Dutta   : EOM-CC, STEOM-CC                              
  Nicolas Foglia         : Exact transition moments, OPA infrastructure, MCD improvements    
  Dmitry Ganyushin       : Spin-Orbit,Spin-Spin,Magnetic field MRCI      
  Miquel Garcia-Rates    : C-PCM and meta-GGA Hessian, CCSD/C-PCM, Gaussian charge scheme 
  Tiago L. C. Gouveia    : GS-ROHF, GS-ROCIS                             
  Yang Guo               : DLPNO-NEVPT2, F12-NEVPT2, CIM, IAO-localization        
  Andreas Hansen         : Spin unrestricted coupled pair/coupled cluster methods 
  Ingolf Harden          : AUTO-CI MPn and infrastructure                
  Benjamin Helmich-Paris : MC-RPA, TRAH-(SCF,CASSCF), AVAS, COSX integrals, SCF dyn. polar., MC-PDFT, srDFT 
  Lee Huntington         : MR-EOM, pCC                                   
  Robert Izsak           : Overlap fitted RIJCOSX, COSX-SCS-MP3, EOM     
  Riya Kayal             : Wick's Theorem for AUTO-CI, AUTO-CI UHF-CCSDT 
  Emily Kempfer          : AUTO-CI RHF CISDT and CCSDT, approximate NEVPT4
  Christian Kollmar      : KDIIS, OOCD, Brueckner-CCSD(T), CCSD density, CASPT2, CASPT2-K, improved NEVPT2 
  Axel Koslowski         : Symmetry handling                             
  Simone Kossmann        : meta-GGA functionals, TD-DFT gradient, OOMP2, (MP2 Hessian; deprecated post 5.0) 
  Lucas Lang             : DCDCAS, Hyperfine gauge corrections, ICE-SOC+SSC
  Marvin Lechner         : AUTO-CI (C++ implementation), FIC-MRCC        
  Spencer Leger          : CASSCF response                               
  Dagmar Lenk            : GEPOL surface, SMD, ORCA-2-JSON               
  Dimitrios Liakos       : Extrapolation schemes; Compound Job, Property file
  Dimitrios Manganas     : Further ROCIS development; embedding schemes. LFT, Crystal Embedding 
  Dimitrios Pantazis     : SARC Basis sets                               
  Anastasios Papadopoulos: AUTO-CI, single reference methods and gradients 
  Taras Petrenko         : pre 6.0 DFT Hessian and TD-DFT gradient,  ECA, NRVS 
  Petra Pikulova         : Analytic Raman intensities                    
  Peter Pinski           : DLPNO-MP2, DLPNO-MP2 Gradient                 
  Shashank Vittal Rao    : ES-AILFT, MagRelax                            
  Christoph Reimann      : Effective Core Potentials                     
  Marius Retegan         : Local ZFS, SOC                                
  Christoph Riplinger    : Optimizer, TS searches, QM/MM, DLPNO-CCSD(T), (RO)-DLPNO pert. Triples 
  Michael Roemelt        : Original ROCIS implementation, recursive CI coupling coefficients
  Masaaki Saitow         : Open-shell DLPNO-CCSD energy and density      
  Barbara Sandhoefer     : DKH picture change effects                    
  Yorick L. A. Schmerwitz: GMF and freeze-and-release deltaSCF, NEB S-IDPP initial path                    
  Kantharuban Sivalingam : CASSCF convergence/infrastructure, NEVPT2, NEVPT3, NEVPT4(SD), FIC-MRCI and CEPA variants
  Bernardo de Souza      : ESD, SOC TD-DFT                               
  Georgi L. Stoychev     : AutoAux, RI-MP2 NMR, DLPNO-MP2 response, X2C  
  Van Anh Tran           : RI-MP2 g-tensors                              
  Willem Van den Heuvel  : Paramagnetic NMR                              
  Zikuan Wang            : NOTCH, Electric field optimization            
  Frank Wennmohs         : Technical directorship and infrastructure     
  Hang Xu                : AUTO-CI-Response properties                   
                                                                         
[FACCTs GmbH]                                                            
  Markus Bursch, Nicolas Foglia, Miquel Garcia-Rates, Ingolf Harden, Hagen Neugebauer, Anastasios Papadopoulos, 
  Christoph Riplinger, Bernardo de Souza, Georgi L. Stoychev                                                    
                                                                 
  APM, various basis sets, CI-OPT, improved COSX, DLPNO-Multilevel,           
  DOCKER, DRACO, updates on ESD, Fragmentator, GOAT, IRC, LR-CPCM, L-BFGS, MBIS, meta-GGA TD-DFT gradient, ML-optimized integration grids, 
  MM, NACMEs, nearIR, NEB, NEB-TS, NL-DFT gradient (VV10), 2- and 3-layer-ONIOM, interface openCOSMO-RS, QMMM,   
  Crystal-QMMM, RESP, rigid body optimization, SF, symmetry and pop. for TD-DFT, various functionals, SOLVATOR                                   
                                                                         
[Other institutions]                                                     
  V. Asgeirsson          : NEB                                           
  Christoph Bannwarth    : sTDA-DFT, sTD-DFT, PBEh-3c, B97-3c, D3        
  Giovanni Bistoni       : ETS/NOCV, ADLD/ADEX, COVALED                  
  Martin Brehm           : Molecular dynamics                            
  Ronald Cardenas        : ETS/NOCV                                      
  Martina Colucci        : COVALED                                       
  Sebastian Ehlert       : rSCAN, r2SCAN, r2SCAN-3c, D4, dhf basis sets  
  Marvin Friede          : D4 for Fr, Ra, Ac-Lr                          
  Lars Goerigk           : TD-DFT with DH, B97 family of functionals     
  Stefan Grimme          : VdW corrections, initial TS optimization, DFT functionals, gCP, sTDA/sTD-DF 
  Waldemar Hujo          : DFT-NL                                        
  H. Jonsson             : NEB                                           
  Holger Kruse           : gCP                                           
  Marcel Mueller         : wB97X-3c, vDZP basis set                      
  Hagen Neugebauer       : wr2SCAN, Native XTB                           
  Gianluca Regni         : ADLD/ADEX                                     
  Tobias Risthaus        : pre 6.0 range-separated hybrid DFT and stability analysis
  Lukas Wittmann         : regularized MP2, r2SCAN double-hybrids, wr2SCAN        
                                                                         
We gratefully acknowledge several colleagues who have allowed us to      
interface, adapt or use parts of their codes:                            
  Ed Valeev, F. Pavosevic, A. Kumar             : LibInt (2-el integral package), F12 methods 
  Garnet Chan, S. Sharma, J. Yang, R. Olivares  : DMRG                   
  Ulf Ekstrom                                   : XCFun DFT Library      
  Mihaly Kallay                                 : mrcc  (arbitrary order and MRCC methods)
  Frank Weinhold                                : gennbo (NPA and NBO analysis)           
  Simon Mueller                                 : openCOSMO-RS                            
  Christopher J. Cramer and Donald G. Truhlar   : smd solvation model                     
  S Lehtola, MJT Oliveira, MAL Marques          : LibXC Library                           
  Liviu Ungur et al                             : ANISO software                          


 Your calculation uses the libint2 library for the computation of 2-el integrals
 For citations please refer to: http://libint.valeyev.net

 Your ORCA version has been built with support for libXC version: 7.0.0
 For citations please refer to: https://libxc.gitlab.io

 This ORCA versions uses:
   CBLAS   interface :  Fast vector & matrix operations
   LAPACKE interface :  Fast linear algebra routines
   SCALAPACK package :  Parallel linear algebra routines
   Shared memory     :  Shared parallel matrices
   BLAS/LAPACK       :  OpenBLAS 0.3.29  USE64BITINT DYNAMIC_ARCH NO_AFFINITY Zen SINGLE_THREADED
        Core in use  :  Zen
   Copyright (c) 2011-2014, The OpenBLAS Project


  ***********************************
  * Starting time: Wed Sep 10 13:36:15 2025
  * Host name:     wyk-Server
  * Process ID:    2298520
  * Working dir.:  /home/wyk/Documents/code/openQDC/MGMR/singlepointcalc/75/sp
  ***********************************

Your calculation utilizes the atom-pairwise dispersion correction
with the Becke-Johnson damping scheme (D3BJ)


Warning: RI is on but no J-basis has been assigned. Assigning Def2/J (nothing to worry about!)
================================================================================

----- Orbital basis set information -----
Your calculation utilizes the basis: def2-SVP
   F. Weigend and R. Ahlrichs, Phys. Chem. Chem. Phys. 7, 3297 (2005).

----- AuxJ basis set information -----
Your calculation utilizes the auxiliary basis: def2/J
   H-Rn: F. Weigend, Phys. Chem. Chem. Phys. 8, 1057 (2006).
   Fr-Lr: K. Eichkorn, F. Weigend, O. Treutler, R. Ahlrichs; Theor. Chem. Acc. 97, 119 (1997).

================================================================================
                                        WARNINGS
                       Please study these warnings very carefully!
================================================================================


================================================================================
                                       INPUT FILE
================================================================================
NAME = orca.inp
|  1> ! B3LYP def2-SVP d3 EnGrad 
|  2> %pal nprocs 6 end 
|  3> *xyz 0 1 
|  4> C   -0.99223262466484 -1.56270936148097 0.19410519661694
|  5> C   -1.78742429237611 -0.69686988584292 -0.45618805286074
|  6> C   -1.86717524526103 0.75764635927286 -0.24736685792134
|  7> C   -1.10615591236669 1.49642981969856 0.57759085941002
|  8> C   2.15560340622757 0.01678718016848 0.97073042870363
|  9> C   2.11241693345628 0.1477985806777 -0.47207904529699
| 10> H   -2.46352057836625 -1.09158543374871 -1.22435713737714
| 11> H   -0.29327609581534 -1.24030737682243 0.97308443428209
| 12> H   -1.01857947627654 -2.62979330782932 -0.04473539660146
| 13> H   3.23153203347561 -0.09761866163293 1.25139558765794
| 14> H   2.08716545394257 -0.98121045479932 -0.57165516332856
| 15> H   1.15509861183683 0.48590896483086 -0.90057941586578
| 16> H   2.99024726961961 0.49256873321532 -1.05253551311066
| 17> H   -1.25876945223832 2.57672080400084 0.65444610342162
| 18> H   -0.30874512254723 1.05778020673562 1.18760373155348
| 19> H   -2.63618490864614 1.26845383355637 -0.83945975928306
| 20> *
| 21> 
| 22>                          ****END OF INPUT****
================================================================================

                     *******************************
                     * Energy+Gradient Calculation *
                     *******************************

---------------------------------
CARTESIAN COORDINATES (ANGSTROEM)
---------------------------------
  C     -0.992233   -1.562709    0.194105
  C     -1.787424   -0.696870   -0.456188
  C     -1.867175    0.757646   -0.247367
  C     -1.106156    1.496430    0.577591
  C      2.155603    0.016787    0.970730
  C      2.112417    0.147799   -0.472079
  H     -2.463521   -1.091585   -1.224357
  H     -0.293276   -1.240307    0.973084
  H     -1.018579   -2.629793   -0.044735
  H      3.231532   -0.097619    1.251396
  H      2.087165   -0.981210   -0.571655
  H      1.155099    0.485909   -0.900579
  H      2.990247    0.492569   -1.052536
  H     -1.258769    2.576721    0.654446
  H     -0.308745    1.057780    1.187604
  H     -2.636185    1.268454   -0.839460

----------------------------
CARTESIAN COORDINATES (A.U.)
----------------------------
  NO LB      ZA    FRAG     MASS         X           Y           Z
   0 C     6.0000    0    12.011   -1.875048   -2.953093    0.366806
   1 C     6.0000    0    12.011   -3.377742   -1.316893   -0.862070
   2 C     6.0000    0    12.011   -3.528450    1.431744   -0.467456
   3 C     6.0000    0    12.011   -2.090332    2.827843    1.091489
   4 C     6.0000    0    12.011    4.073500    0.031723    1.834415
   5 C     6.0000    0    12.011    3.991889    0.279299   -0.892100
   6 H     1.0000    0     1.008   -4.655379   -2.062798   -2.313700
   7 H     1.0000    0     1.008   -0.554212   -2.343841    1.838863
   8 H     1.0000    0     1.008   -1.924836   -4.969589   -0.084538
   9 H     1.0000    0     1.008    6.106711   -0.184473    2.364795
  10 H     1.0000    0     1.008    3.944171   -1.854219   -1.080272
  11 H     1.0000    0     1.008    2.182820    0.918235   -1.701848
  12 H     1.0000    0     1.008    5.650748    0.930820   -1.989004
  13 H     1.0000    0     1.008   -2.378730    4.869297    1.236724
  14 H     1.0000    0     1.008   -0.583444    1.998915    2.244246
  15 H     1.0000    0     1.008   -4.981668    2.397030   -1.586349

--------------------------------
INTERNAL COORDINATES (ANGSTROEM)
--------------------------------
 C      0   0   0     0.000000000000     0.00000000     0.00000000
 C      1   0   0     1.343461609532     0.00000000     0.00000000
 C      2   1   0     1.471592339355   126.89827418     0.00000000
 C      3   2   1     1.343691431029   126.86010352     4.08925034
 C      4   3   2     3.603189547345   110.72625237    29.43051877
 C      5   4   3     1.449388918393    80.05485949    55.84426953
 H      2   1   3     1.096809142055   118.15974919   180.46150035
 H      1   2   3     1.095121875248   122.16431807   359.58738265
 H      1   2   3     1.093803974263   120.58315698   179.90525812
 H      5   4   3     1.117803220169   160.17883094   167.89789553
 H      6   5   4     1.133672987545    89.89004955   247.37730393
 H      6   5   4     1.101993452049   116.14816622   353.62832415
 H      6   5   4     1.107421450125   121.75540561   138.10465743
 H      4   3   2     1.093721277040   120.47607018   180.24700992
 H      4   3   2     1.095624550133   122.27004101     0.94074627
 H      3   2   1     1.096756190776   114.94395695   184.05441421

---------------------------
INTERNAL COORDINATES (A.U.)
---------------------------
 C      0   0   0     0.000000000000     0.00000000     0.00000000
 C      1   0   0     2.538774513453     0.00000000     0.00000000
 C      2   1   0     2.780906502157   126.89827418     0.00000000
 C      3   2   1     2.539208813142   126.86010352     4.08925034
 C      4   3   2     6.809041453090   110.72625237    29.43051877
 C      5   4   3     2.738948117303    80.05485949    55.84426953
 H      2   1   3     2.072668899665   118.15974919   180.46150035
 H      1   2   3     2.069480427485   122.16431807   359.58738265
 H      1   2   3     2.066989955551   120.58315698   179.90525812
 H      5   4   3     2.112341957735   160.17883094   167.89789553
 H      6   5   4     2.142331471884    89.89004955   247.37730393
 H      6   5   4     2.082465825746   116.14816622   353.62832415
 H      6   5   4     2.092723255566   121.75540561   138.10465743
 H      4   3   2     2.066833680447   120.47607018   180.24700992
 H      4   3   2     2.070430345352   122.27004101     0.94074627
 H      3   2   1     2.072568836250   114.94395695   184.05441421

---------------------
BASIS SET INFORMATION
---------------------
There are 2 groups of distinct atoms

 Group   1 Type C   : 7s4p1d contracted to 3s2p1d pattern {511/31/1}
 Group   2 Type H   : 4s1p contracted to 2s1p pattern {31/1}

Atom   0C    basis set group =>   1
Atom   1C    basis set group =>   1
Atom   2C    basis set group =>   1
Atom   3C    basis set group =>   1
Atom   4C    basis set group =>   1
Atom   5C    basis set group =>   1
Atom   6H    basis set group =>   2
Atom   7H    basis set group =>   2
Atom   8H    basis set group =>   2
Atom   9H    basis set group =>   2
Atom  10H    basis set group =>   2
Atom  11H    basis set group =>   2
Atom  12H    basis set group =>   2
Atom  13H    basis set group =>   2
Atom  14H    basis set group =>   2
Atom  15H    basis set group =>   2
---------------------------------
AUXILIARY/J BASIS SET INFORMATION
---------------------------------
There are 2 groups of distinct atoms

 Group   1 Type C   : 12s5p4d2f1g contracted to 6s4p3d1f1g pattern {711111/2111/211/2/1}
 Group   2 Type H   : 5s2p1d contracted to 3s1p1d pattern {311/2/1}

Atom   0C    basis set group =>   1
Atom   1C    basis set group =>   1
Atom   2C    basis set group =>   1
Atom   3C    basis set group =>   1
Atom   4C    basis set group =>   1
Atom   5C    basis set group =>   1
Atom   6H    basis set group =>   2
Atom   7H    basis set group =>   2
Atom   8H    basis set group =>   2
Atom   9H    basis set group =>   2
Atom  10H    basis set group =>   2
Atom  11H    basis set group =>   2
Atom  12H    basis set group =>   2
Atom  13H    basis set group =>   2
Atom  14H    basis set group =>   2
Atom  15H    basis set group =>   2


           ************************************************************
           *        Program running with 6 parallel MPI-processes     *
           *              working on a common directory               *
           ************************************************************
------------------------------------------------------------------------------
                             ORCA STARTUP CALCULATIONS
                           -- RI-GTO INTEGRALS CHOSEN --
------------------------------------------------------------------------------
------------------------------------------------------------------------------
                   ___                                                        
                  /   \      - P O W E R E D   B Y -                         
                 /     \                                                     
                 |  |  |   _    _      __       _____    __    __             
                 |  |  |  | |  | |    /  \     |  _  \  |  |  /  |          
                  \  \/   | |  | |   /    \    | | | |  |  | /  /          
                 / \  \   | |__| |  /  /\  \   | |_| |  |  |/  /          
                |  |  |   |  __  | /  /__\  \  |    /   |      \           
                |  |  |   | |  | | |   __   |  |    \   |  |\   \          
                \     /   | |  | | |  |  |  |  | |\  \  |  | \   \       
                 \___/    |_|  |_| |__|  |__|  |_| \__\ |__|  \__/        
                                                                              
                      - O R C A' S   B I G   F R I E N D -                    
                                      &                                       
                       - I N T E G R A L  F E E D E R -                       
                                                                              
 v1 FN, 2020, v2 2021, v3 2022-2024                                           
------------------------------------------------------------------------------


----------------------
SHARK INTEGRAL PACKAGE
----------------------

Number of atoms                             ...     16
Number of basis functions                   ...    134
Number of shells                            ...     66
Maximum angular momentum                    ...      2
Integral batch strategy                     ... SHARK/LIBINT Hybrid
RI-J (if used) integral strategy            ... SPLIT-RIJ (Revised 2003 algorithm where possible)
Printlevel                                  ...      1
Contraction scheme used                     ... SEGMENTED contraction
Prescreening option                         ... SCHWARTZ
   Thresh                                   ... 2.500e-11
   Tcut                                     ... 2.500e-12
   Tpresel                                  ... 2.500e-12 
Coulomb Range Separation                    ... NOT USED
Exchange Range Separation                   ... NOT USED
Multipole approximations                    ... NOT USED
Finite Nucleus Model                        ... NOT USED
CABS basis                                  ... NOT available
Auxiliary Coulomb fitting basis             ... AVAILABLE
   # of basis functions in Aux-J            ...    404
   # of shells in Aux-J                     ...    140
   Maximum angular momentum in Aux-J        ...      4
Auxiliary J/K fitting basis                 ... NOT available
Auxiliary Correlation fitting basis         ... NOT available
Auxiliary 'external' fitting basis          ... NOT available

Checking pre-screening integrals            ... done (  0.0 sec) Dimension = 66
   => SHARK Basis and OBASIS are compatible. Storing Pre-screening
Shell pair information
Shell pair cut-off parameter TPreSel        ...   2.5e-12
Total number of shell pairs                 ...      2211
Shell pairs after pre-screening             ...      2103
Total number of primitive shell pairs       ...      7611
Primitive shell pairs kept                  ...      5408
          la=0 lb=0:    712 shell pairs
          la=1 lb=0:    797 shell pairs
          la=1 lb=1:    238 shell pairs
          la=2 lb=0:    211 shell pairs
          la=2 lb=1:    124 shell pairs
          la=2 lb=2:     21 shell pairs

Checking whether 4 symmetric matrices of dimension 134 fit in memory
:Max Core in MB      =   4096.00
 MB in use           =      5.96
 MB left             =   4090.04
 MB needed           =      0.28
 Data fit in memory  = YES
Calculating RI/J V-Matrix + Cholesky decomp.... done (  0.0 sec)
Calculating Nuclear repulsion               ... done (  0.0 sec) ENN=    201.492239954058 Eh

Diagonalization of the overlap matrix:
Smallest eigenvalue                        ... 1.440e-03
Time for diagonalization                   ...    0.003 sec
Threshold for overlap eigenvalues          ... 1.000e-07
Number of eigenvalues below threshold      ... 0
Time for construction of square roots      ...    0.001 sec
Total time needed                          ...    0.005 sec

-------------------
DFT GRID GENERATION
-------------------

General Integration Accuracy     IntAcc      ... 4.388
Radial Grid Type                 RadialGrid  ... OptM3 with GC (2021)
Angular Grid (max. ang.)         AngularGrid ... 4 (Lebedev-302)
Angular grid pruning method      GridPruning ... 4 (adaptive)
Weight generation scheme         WeightScheme... mBecke (2022)
Basis function cutoff            BFCut       ... 1.0000e-11
Integration weight cutoff        WCut        ... 1.0000e-14
Partially contracted basis set               ... off
Rotationally invariant grid construction     ... off
Angular grids for H and He will be reduced by one unit

Total number of grid points                  ...    68622
Total number of batches                      ...     1079
Average number of points per batch           ...       63
Average number of grid points per atom       ...     4289

--------------------
COSX GRID GENERATION
--------------------

GRIDX 1
-------
General Integration Accuracy     IntAcc      ... 3.816
Radial Grid Type                 RadialGrid  ... OptM3 with GC (2021)
Angular Grid (max. ang.)         AngularGrid ... 1 (Lebedev-50)
Angular grid pruning method      GridPruning ... 4 (adaptive)
Weight generation scheme         WeightScheme... mBecke (2022)
Basis function cutoff            BFCut       ... 1.0000e-11
Integration weight cutoff        WCut        ... 1.0000e-14
Partially contracted basis set               ... on
Rotationally invariant grid construction     ... off
Angular grids for H and He will be reduced by one unit

Total number of grid points                  ...     8815
Total number of batches                      ...       79
Average number of points per batch           ...      111
Average number of grid points per atom       ...      551
UseSFitting                                  ... on

GRIDX 2
-------
General Integration Accuracy     IntAcc      ... 4.020
Radial Grid Type                 RadialGrid  ... OptM3 with GC (2021)
Angular Grid (max. ang.)         AngularGrid ... 2 (Lebedev-110)
Angular grid pruning method      GridPruning ... 4 (adaptive)
Weight generation scheme         WeightScheme... mBecke (2022)
Basis function cutoff            BFCut       ... 1.0000e-11
Integration weight cutoff        WCut        ... 1.0000e-14
Partially contracted basis set               ... on
Rotationally invariant grid construction     ... off
Angular grids for H and He will be reduced by one unit

Total number of grid points                  ...    18548
Total number of batches                      ...      152
Average number of points per batch           ...      122
Average number of grid points per atom       ...     1159
UseSFitting                                  ... on

GRIDX 3
-------
General Integration Accuracy     IntAcc      ... 4.338
Radial Grid Type                 RadialGrid  ... OptM3 with GC (2021)
Angular Grid (max. ang.)         AngularGrid ... 3 (Lebedev-194)
Angular grid pruning method      GridPruning ... 4 (adaptive)
Weight generation scheme         WeightScheme... mBecke (2022)
Basis function cutoff            BFCut       ... 1.0000e-11
Integration weight cutoff        WCut        ... 1.0000e-14
Partially contracted basis set               ... on
Rotationally invariant grid construction     ... off
Angular grids for H and He will be reduced by one unit

Total number of grid points                  ...    40591
Total number of batches                      ...      326
Average number of points per batch           ...      124
Average number of grid points per atom       ...     2537
UseSFitting                                  ... on
Grids setup in   0.9 sec
Initializing property integral containers    ... done (  0.0 sec)

SHARK setup successfully completed in   1.0 seconds

Maximum memory used throughout the entire STARTUP-calculation: 18.2 MB


           ************************************************************
           *        Program running with 6 parallel MPI-processes     *
           *              working on a common directory               *
           ************************************************************
-------------------------------------------------------------------------------
                                 ORCA GUESS
                   Start orbitals & Density for SCF / CASSCF
-------------------------------------------------------------------------------

------------
SCF SETTINGS
------------
Hamiltonian:
 Density Functional     Method          .... DFT(GTOs)
 Exchange Functional    Exchange        .... B88
   X-Alpha parameter    XAlpha          ....  0.666667
   Becke's b parameter  XBeta           ....  0.004200
 Correlation Functional Correlation     .... LYP
 LDA part of GGA corr.  LDAOpt          .... VWN-5
 Gradients option       PostSCFGGA      .... off
 Hybrid DFT is turned on
   Fraction HF Exchange ScalHFX         ....  0.200000
   Scaling of DF-GGA-X  ScalDFX         ....  0.720000
   Scaling of DF-GGA-C  ScalDFC         ....  0.810000
   Scaling of DF-LDA-C  ScalLDAC        ....  1.000000
   Perturbative correction              ....  0.000000
   NL short-range parameter             ....  4.800000
 RI-approximation to the Coulomb term is turned on
   Number of AuxJ basis functions       .... 404
   RIJ-COSX (HFX calculated with COS-X)).... on


General Settings:
 Integral files         IntName         .... orca
 Hartree-Fock type      HFTyp           .... RHF
 Total Charge           Charge          ....    0
 Multiplicity           Mult            ....    1
 Number of Electrons    NEL             ....   46
 Basis Dimension        Dim             ....  134
 Nuclear Repulsion      ENuc            ....    201.4922399541 Eh

Convergence Acceleration:
 AO-DIIS                CNVDIIS         .... on
   Start iteration      DIISMaxIt       ....    12
   Startup error        DIISStart       ....  0.200000
   # of expansion vecs  DIISMaxEq       ....     5
   Bias factor          DIISBfac        ....   1.050
   Max. coefficient     DIISMaxC        ....  10.000
 MO-DIIS                CNVKDIIS        .... off
 Trust-Rad. Augm. Hess. CNVTRAH         .... auto
   Auto Start mean grad. ratio tolernc. ....  1.125000
   Auto Start start iteration           ....    50
   Auto Start num. interpolation iter.  ....    10
   Max. Number of Micro iterations      ....    24
   Max. Number of Macro iterations      .... Maxiter - #DIIS iter
   Number of Davidson start vectors     ....     2
   Converg. threshold    (grad. norm)   ....   1.000e-05
   Grad. Scal. Fac. for Micro threshold ....   0.100
   Minimum threshold for Micro iter.    ....   1.000e-02
   NR start threshold (gradient norm)   ....   1.000e-04
   Initial trust radius                 ....   0.400
   Minimum AH scaling param. (alpha)    ....   1.000
   Maximum AH scaling param. (alpha)    .... 1000.000
   Quad. conv. algorithm                .... NR
   White noise on init. David. guess    .... on
   Maximum white noise                  ....   0.010
   Pseudo random numbers                .... off
   Inactive MOs                         .... canonical
   Orbital update algorithm             .... Taylor
   Preconditioner                       .... Diag
   Full preconditioner red. dimension   ....   250
 SOSCF                 CNVSOSCF           .... on
   Start iteration     SOSCFMaxIt         ....   150
   Startup grad/error  SOSCFStart         ....  0.003300
   Hessian update      SOSCFHessUp        .... L-BFGS
   Autom. constraints  SOSCFAutoConstrain .... off
 Level Shifting         CNVShift        .... on
   Level shift para.    LevelShift      ....    0.2500
   Turn off err/grad.   ShiftErr        ....    0.0010
 Zerner damping         CNVZerner       .... off
 Static damping         CNVDamp         .... on
   Fraction old density DampFac         ....    0.7000
   Max. Damping (<1)    DampMax         ....    0.9800
   Min. Damping (>=0)   DampMin         ....    0.0000
   Turn off err/grad.   DampErr         ....    0.1000

SCF Procedure:
 Maximum # iterations   MaxIter         ....   125
 SCF integral mode      SCFMode         .... Direct
   Integral package                     .... SHARK and LIBINT hybrid scheme
 Reset frequency        DirectResetFreq ....    20
 Integral Threshold     Thresh          ....  2.500e-11 Eh
 Primitive CutOff       TCut            ....  2.500e-12 Eh

Convergence Tolerance:
 Convergence Check Mode ConvCheckMode   .... Total+1el-Energy
 Convergence forced     ConvForced      .... 0
 Energy Change          TolE            ....  1.000e-08 Eh
 1-El. energy change                    ....  1.000e-05 Eh
 Orbital Gradient       TolG            ....  1.000e-05
 Orbital Rotation angle TolX            ....  1.000e-05
 DIIS Error             TolErr          ....  5.000e-07

------------------------------
INITIAL GUESS: MODEL POTENTIAL
------------------------------
Loading Hartree-Fock densities                     ... done
Calculating cut-offs                               ... done
Initializing the effective Hamiltonian             ... done
Setting up the integral package (SHARK)            ... done
Starting the Coulomb interaction                   ... done (   0.0 sec)
Making the grid                                    ... done (   0.1 sec)
Mapping shells                                     ... done
Starting the XC term evaluation                    ... done (   0.0 sec)
  promolecular density results
     # of electrons  =     45.990170048
     EX              =    -33.649772369
     EC              =     -1.447176456
     EX+EC           =    -35.096948826
Transforming the Hamiltonian                       ... done (   0.0 sec)
Diagonalizing the Hamiltonian                      ... done (   0.0 sec)
Back transforming the eigenvectors                 ... done (   0.0 sec)
Now organizing SCF variables                       ... done
                      ------------------
                      INITIAL GUESS DONE (   0.2 sec)
                      ------------------
             **** ENERGY FILE WAS UPDATED (orca.en.tmp) ****
Finished Guess after   0.3 sec
Maximum memory used throughout the entire GUESS-calculation: 8.5 MB


           ************************************************************
           *        Program running with 6 parallel MPI-processes     *
           *              working on a common directory               *
           ************************************************************

-------------------------------------------------------------------------------------------
                                      ORCA LEAN-SCF
                              memory conserving SCF solver
-------------------------------------------------------------------------------------------

----------------------------------------D-I-I-S--------------------------------------------
Iteration    Energy (Eh)           Delta-E    RMSDP     MaxDP     DIISErr   Damp  Time(sec)
-------------------------------------------------------------------------------------------
               ***  Starting incremental Fock matrix formation  ***
    1    -233.9527661785216139     0.00e+00  7.91e-03  7.49e-02  1.61e-01  0.700   0.8
    2    -234.0279555945563459    -7.52e-02  5.95e-03  5.62e-02  8.62e-02  0.700   0.5
                               ***Turning on AO-DIIS***
    3    -234.0611081029110494    -3.32e-02  2.70e-03  3.05e-02  3.51e-02  0.700   0.5
    4    -234.0799167621635490    -1.88e-02  5.05e-03  5.97e-02  1.92e-02  0.000   0.5
    5    -234.1198004714463821    -3.99e-02  6.78e-04  5.79e-03  5.01e-03  0.000   0.5
                              *** Initializing SOSCF ***
---------------------------------------S-O-S-C-F--------------------------------------
Iteration    Energy (Eh)           Delta-E    RMSDP     MaxDP     MaxGrad    Time(sec)
--------------------------------------------------------------------------------------
    6    -234.1200192730362630    -2.19e-04  2.40e-04  1.31e-03  1.70e-03     0.4
               *** Restarting incremental Fock matrix formation ***
    7    -234.1200863264277530    -6.71e-05  1.83e-04  1.40e-03  2.21e-04     0.8
    8    -234.1200868438455416    -5.17e-07  5.80e-05  9.41e-04  1.93e-04     0.6
    9    -234.1200881999554042    -1.36e-06  2.10e-05  1.62e-04  4.38e-05     0.6
   10    -234.1200881623393286     3.76e-08  1.12e-05  1.06e-04  6.97e-05     0.6
   11    -234.1200882389328228    -7.66e-08  3.44e-06  2.93e-05  6.65e-06     0.5
   12    -234.1200882401212482    -1.19e-09  1.91e-06  1.99e-05  7.95e-06     0.5
                 **** Energy Check signals convergence ****

               *****************************************************
               *                     SUCCESS                       *
               *           SCF CONVERGED AFTER  12 CYCLES          *
               *****************************************************

Recomputing exchange energy using gridx3       ... done (    1.128 sec)
Old exchange energy                            :     -6.879197419 Eh
New exchange energy                            :     -6.879217255 Eh
Exchange energy change after final integration :     -0.000019836 Eh
Total energy after final integration           :   -234.120108076 Eh
             **** ENERGY FILE WAS UPDATED (orca.en.tmp) ****

----------------
TOTAL SCF ENERGY
----------------

Total Energy       :       -234.12010807620163 Eh           -6370.73202 eV

Components:
Nuclear Repulsion  :        201.49223995405842 Eh            5482.88259 eV
Electronic Energy  :       -435.61232819395047 Eh          -11853.61408 eV
One Electron Energy:       -712.18468292970272 Eh          -19379.53046 eV
Two Electron Energy:        276.57235473575224 Eh            7525.91638 eV

Virial components:
Potential Energy   :       -465.50267938841910 Eh          -12666.97188 eV
Kinetic Energy     :        231.38257131221744 Eh            6296.23986 eV
Virial Ratio       :          2.01183121420278

DFT components:
N(Alpha)           :       23.000053181261 electrons
N(Beta)            :       23.000053181261 electrons
N(Total)           :       46.000106362522 electrons
E(X)               :      -27.272849590551 Eh       
E(C)               :       -1.725286434377 Eh       
E(XC)              :      -28.998136024928 Eh       

---------------
SCF CONVERGENCE
---------------

  Last Energy change         ...    1.1884e-09  Tolerance :   1.0000e-08
  Last MAX-Density change    ...    1.9913e-05  Tolerance :   1.0000e-07
  Last RMS-Density change    ...    1.9067e-06  Tolerance :   5.0000e-09
  Last DIIS Error            ...    1.6969e-03  Tolerance :   5.0000e-07
  Last Orbital Gradient      ...    7.9503e-06  Tolerance :   1.0000e-05
  Last Orbital Rotation      ...    7.4840e-06  Tolerance :   1.0000e-05


----------------
ORBITAL ENERGIES
----------------

  NO   OCC          E(Eh)            E(eV) 
   0   2.0000     -10.222334      -278.1638 
   1   2.0000     -10.206712      -277.7387 
   2   2.0000     -10.184413      -277.1320 
   3   2.0000     -10.183506      -277.1073 
   4   2.0000     -10.175121      -276.8791 
   5   2.0000     -10.174088      -276.8510 
   6   2.0000      -0.784409       -21.3448 
   7   2.0000      -0.775537       -21.1034 
   8   2.0000      -0.708467       -19.2784 
   9   2.0000      -0.602353       -16.3908 
  10   2.0000      -0.570581       -15.5263 
  11   2.0000      -0.509510       -13.8645 
  12   2.0000      -0.479653       -13.0520 
  13   2.0000      -0.452346       -12.3090 
  14   2.0000      -0.429929       -11.6990 
  15   2.0000      -0.423481       -11.5235 
  16   2.0000      -0.406317       -11.0564 
  17   2.0000      -0.374426       -10.1887 
  18   2.0000      -0.349554        -9.5118 
  19   2.0000      -0.339460        -9.2372 
  20   2.0000      -0.314264        -8.5515 
  21   2.0000      -0.225535        -6.1371 
  22   2.0000      -0.217616        -5.9216 
  23   0.0000      -0.082305        -2.2396 
  24   0.0000      -0.032289        -0.8786 
  25   0.0000       0.062854         1.7103 
  26   0.0000       0.075330         2.0498 
  27   0.0000       0.088927         2.4198 
  28   0.0000       0.097310         2.6479 
  29   0.0000       0.112905         3.0723 
  30   0.0000       0.115843         3.1523 
  31   0.0000       0.125133         3.4050 
  32   0.0000       0.155695         4.2367 
  33   0.0000       0.162101         4.4110 
*Only the first 10 virtual orbitals were printed.

                    ********************************
                    * MULLIKEN POPULATION ANALYSIS *
                    ********************************

-----------------------
MULLIKEN ATOMIC CHARGES
-----------------------
   0 C :   -0.042332
   1 C :   -0.021559
   2 C :   -0.024440
   3 C :   -0.037918
   4 C :   -0.145223
   5 C :   -0.032429
   6 H :   -0.012276
   7 H :    0.042889
   8 H :    0.015513
   9 H :    0.029191
  10 H :    0.068111
  11 H :    0.067915
  12 H :    0.036885
  13 H :    0.016771
  14 H :    0.051422
  15 H :   -0.012521
Sum of atomic charges:   -0.0000000

--------------------------------
MULLIKEN REDUCED ORBITAL CHARGES
--------------------------------
  0 C s       :     3.116389  s :     3.116389
      pz      :     0.978283  p :     2.899909
      px      :     0.984662
      py      :     0.936963
      dz2     :     0.004183  d :     0.026034
      dxz     :     0.004408
      dyz     :     0.005184
      dx2y2   :     0.007453
      dxy     :     0.004806

  1 C s       :     3.133280  s :     3.133280
      pz      :     0.952770  p :     2.853087
      px      :     0.954543
      py      :     0.945774
      dz2     :     0.004940  d :     0.035192
      dxz     :     0.004676
      dyz     :     0.008096
      dx2y2   :     0.009118
      dxy     :     0.008362

  2 C s       :     3.133762  s :     3.133762
      pz      :     0.963342  p :     2.855558
      px      :     0.952883
      py      :     0.939334
      dz2     :     0.005110  d :     0.035119
      dxz     :     0.004523
      dyz     :     0.008337
      dx2y2   :     0.008598
      dxy     :     0.008551

  3 C s       :     3.121194  s :     3.121194
      pz      :     0.974610  p :     2.890663
      px      :     0.981940
      py      :     0.934114
      dz2     :     0.004853  d :     0.026061
      dxz     :     0.004401
      dyz     :     0.004521
      dx2y2   :     0.007089
      dxy     :     0.005197

  4 C s       :     3.691485  s :     3.691485
      pz      :     1.035461  p :     2.424750
      px      :     1.164105
      py      :     0.225184
      dz2     :     0.012309  d :     0.028988
      dxz     :     0.004273
      dyz     :     0.006216
      dx2y2   :     0.005868
      dxy     :     0.000321

  5 C s       :     3.027019  s :     3.027019
      pz      :     0.977898  p :     2.973906
      px      :     1.052053
      py      :     0.943956
      dz2     :     0.008565  d :     0.031505
      dxz     :     0.013753
      dyz     :     0.000195
      dx2y2   :     0.007153
      dxy     :     0.001837

  6 H s       :     0.989749  s :     0.989749
      pz      :     0.009373  p :     0.022527
      px      :     0.008204
      py      :     0.004950

  7 H s       :     0.932672  s :     0.932672
      pz      :     0.009906  p :     0.024438
      px      :     0.009342
      py      :     0.005191

  8 H s       :     0.961016  s :     0.961016
      pz      :     0.004974  p :     0.023471
      px      :     0.004510
      py      :     0.013986

  9 H s       :     0.947742  s :     0.947742
      pz      :     0.008042  p :     0.023067
      px      :     0.013942
      py      :     0.001083

 10 H s       :     0.904671  s :     0.904671
      pz      :     0.007277  p :     0.027218
      px      :     0.005590
      py      :     0.014350

 11 H s       :     0.909179  s :     0.909179
      pz      :     0.004911  p :     0.022906
      px      :     0.012595
      py      :     0.005400

 12 H s       :     0.940844  s :     0.940844
      pz      :     0.006438  p :     0.022272
      px      :     0.010451
      py      :     0.005383

 13 H s       :     0.959753  s :     0.959753
      pz      :     0.004585  p :     0.023476
      px      :     0.004645
      py      :     0.014246

 14 H s       :     0.923978  s :     0.923978
      pz      :     0.007588  p :     0.024601
      px      :     0.010965
      py      :     0.006048

 15 H s       :     0.989998  s :     0.989998
      pz      :     0.007204  p :     0.022523
      px      :     0.009401
      py      :     0.005918



                     *******************************
                     * LOEWDIN POPULATION ANALYSIS *
                     *******************************

----------------------
LOEWDIN ATOMIC CHARGES
----------------------
   0 C :   -0.045588
   1 C :   -0.041957
   2 C :   -0.044563
   3 C :   -0.038747
   4 C :   -0.051656
   5 C :   -0.093985
   6 H :    0.023534
   7 H :    0.025573
   8 H :    0.021809
   9 H :    0.002227
  10 H :    0.108281
  11 H :    0.038385
  12 H :    0.022254
  13 H :    0.022733
  14 H :    0.028294
  15 H :    0.023406

-------------------------------
LOEWDIN REDUCED ORBITAL CHARGES
-------------------------------
  0 C s       :     2.890142  s :     2.890142
      pz      :     1.023004  p :     3.088040
      px      :     1.019137
      py      :     1.045898
      dz2     :     0.009988  d :     0.067407
      dxz     :     0.011936
      dyz     :     0.013142
      dx2y2   :     0.019321
      dxy     :     0.013020

  1 C s       :     2.874388  s :     2.874388
      pz      :     1.012860  p :     3.076961
      px      :     1.016270
      py      :     1.047830
      dz2     :     0.012117  d :     0.090608
      dxz     :     0.012491
      dyz     :     0.020324
      dx2y2   :     0.024176
      dxy     :     0.021498

  2 C s       :     2.874150  s :     2.874150
      pz      :     1.017546  p :     3.079897
      px      :     1.022073
      py      :     1.040278
      dz2     :     0.011711  d :     0.090517
      dxz     :     0.012365
      dyz     :     0.021472
      dx2y2   :     0.023261
      dxy     :     0.021707

  3 C s       :     2.890791  s :     2.890791
      pz      :     1.012287  p :     3.080588
      px      :     1.023511
      py      :     1.044791
      dz2     :     0.010446  d :     0.067368
      dxz     :     0.012148
      dyz     :     0.012363
      dx2y2   :     0.018962
      dxy     :     0.013448

  4 C s       :     3.279820  s :     3.279820
      pz      :     1.180535  p :     2.715811
      px      :     1.288305
      py      :     0.246972
      dz2     :     0.026197  d :     0.056025
      dxz     :     0.008559
      dyz     :     0.009622
      dx2y2   :     0.011005
      dxy     :     0.000642

  5 C s       :     2.859896  s :     2.859896
      pz      :     1.084026  p :     3.153921
      px      :     1.073331
      py      :     0.996564
      dz2     :     0.024927  d :     0.080168
      dxz     :     0.032332
      dyz     :     0.000561
      dx2y2   :     0.016161
      dxy     :     0.006187

  6 H s       :     0.911376  s :     0.911376
      pz      :     0.026775  p :     0.065090
      px      :     0.023340
      py      :     0.014974

  7 H s       :     0.902694  s :     0.902694
      pz      :     0.029692  p :     0.071732
      px      :     0.027300
      py      :     0.014741

  8 H s       :     0.910684  s :     0.910684
      pz      :     0.014788  p :     0.067507
      px      :     0.013141
      py      :     0.039578

  9 H s       :     0.928584  s :     0.928584
      pz      :     0.019665  p :     0.069189
      px      :     0.046970
      py      :     0.002554

 10 H s       :     0.825996  s :     0.825996
      pz      :     0.015448  p :     0.065724
      px      :     0.011762
      py      :     0.038513

 11 H s       :     0.895781  s :     0.895781
      pz      :     0.015091  p :     0.065833
      px      :     0.037171
      py      :     0.013571

 12 H s       :     0.912243  s :     0.912243
      pz      :     0.021750  p :     0.065503
      px      :     0.030245
      py      :     0.013507

 13 H s       :     0.909892  s :     0.909892
      pz      :     0.013167  p :     0.067375
      px      :     0.013554
      py      :     0.040654

 14 H s       :     0.899498  s :     0.899498
      pz      :     0.022776  p :     0.072208
      px      :     0.031877
      py      :     0.017556

 15 H s       :     0.911465  s :     0.911465
      pz      :     0.020746  p :     0.065129
      px      :     0.026650
      py      :     0.017733



                      *****************************
                      * MAYER POPULATION ANALYSIS *
                      *****************************

  NA   - Mulliken gross atomic population
  ZA   - Total nuclear charge
  QA   - Mulliken gross atomic charge
  VA   - Mayer's total valence
  BVA  - Mayer's bonded valence
  FA   - Mayer's free valence

  ATOM       NA         ZA         QA         VA         BVA        FA
  0 C      6.0423     6.0000    -0.0423     3.9215     3.9215    -0.0000
  1 C      6.0216     6.0000    -0.0216     4.0421     4.0421    -0.0000
  2 C      6.0244     6.0000    -0.0244     4.0395     4.0395     0.0000
  3 C      6.0379     6.0000    -0.0379     3.9213     3.9213     0.0000
  4 C      6.1452     6.0000    -0.1452     2.3712     2.3712    -0.0000
  5 C      6.0324     6.0000    -0.0324     3.8853     3.8853    -0.0000
  6 H      1.0123     1.0000    -0.0123     0.9742     0.9742    -0.0000
  7 H      0.9571     1.0000     0.0429     1.0094     1.0094    -0.0000
  8 H      0.9845     1.0000     0.0155     0.9731     0.9731    -0.0000
  9 H      0.9708     1.0000     0.0292     0.9364     0.9364    -0.0000
 10 H      0.9319     1.0000     0.0681     1.0169     1.0169    -0.0000
 11 H      0.9321     1.0000     0.0679     0.9898     0.9898    -0.0000
 12 H      0.9631     1.0000     0.0369     0.9713     0.9713    -0.0000
 13 H      0.9832     1.0000     0.0168     0.9735     0.9735    -0.0000
 14 H      0.9486     1.0000     0.0514     1.0070     1.0070    -0.0000
 15 H      1.0125     1.0000    -0.0125     0.9743     0.9743     0.0000

  Mayer bond orders larger than 0.100000
B(  0-C ,  1-C ) :   1.9441 B(  0-C ,  3-C ) :   0.1132 B(  0-C ,  7-H ) :   0.9366 
B(  0-C ,  8-H ) :   0.9469 B(  1-C ,  2-C ) :   1.1011 B(  1-C ,  6-H ) :   0.9595 
B(  2-C ,  3-C ) :   1.9372 B(  2-C , 15-H ) :   0.9594 B(  3-C , 13-H ) :   0.9474 
B(  3-C , 14-H ) :   0.9362 B(  4-C ,  5-C ) :   1.1647 B(  4-C ,  9-H ) :   0.9108 
B(  4-C , 10-H ) :   0.1710 B(  5-C , 10-H ) :   0.8297 B(  5-C , 11-H ) :   0.9490 
B(  5-C , 12-H ) :   0.9347 

-------
TIMINGS
-------

Total SCF time: 0 days 0 hours 0 min 8 sec 

Total time                  ....       8.457 sec
Sum of individual times     ....       7.983 sec  ( 94.4%)

SCF preparation             ....       0.184 sec  (  2.2%)
Fock matrix formation       ....       7.556 sec  ( 89.3%)
  Startup                   ....       0.004 sec  (  0.1% of F)
  Split-RI-J                ....       0.646 sec  (  8.6% of F)
  Chain of spheres X        ....       5.644 sec  ( 74.7% of F)
  XC integration            ....       1.557 sec  ( 20.6% of F)
    XC Preparation          ....       0.000 sec  (  0.0% of XC)
    Basis function eval.    ....       0.471 sec  ( 30.2% of XC)
    Density eval.           ....       0.242 sec  ( 15.6% of XC)
    XC-Functional eval.     ....       0.095 sec  (  6.1% of XC)
    XC-Potential eval.      ....       0.271 sec  ( 17.4% of XC)
Diagonalization             ....       0.000 sec  (  0.0%)
Density matrix formation    ....       0.031 sec  (  0.4%)
Total Energy calculation    ....       0.016 sec  (  0.2%)
Population analysis         ....       0.014 sec  (  0.2%)
Orbital Transformation      ....       0.018 sec  (  0.2%)
Orbital Orthonormalization  ....       0.000 sec  (  0.0%)
DIIS solution               ....       0.090 sec  (  1.1%)
SOSCF solution              ....       0.074 sec  (  0.9%)
Finished LeanSCF after   8.5 sec

Maximum memory used throughout the entire LEANSCF-calculation: 11.8 MB


-------------------------------------------------------------------------------
                          DFT DISPERSION CORRECTION                            
                                                                               
                              DFTD3 V3.1  Rev 1                                
                          USING Becke-Johnson damping                          
-------------------------------------------------------------------------------
The B3LYP functional is recognized
Active option DFTDOPT                   ...         4   

molecular C6(AA) [au] = 2255.498701 


            DFT-D V3
 parameters
 s6 scaling factor         :     1.0000 
 a1 scaling factor         :     0.3981 
 s8 scaling factor         :     1.9889 
 a2 scaling factor         :     4.4211 
 ad hoc parameters k1-k3   :    16.0000     1.3333    -4.0000 

 Edisp/kcal,au: -12.402155918235  -0.019764091393 
 E6   /kcal   :  -6.082981517 
 E8   /kcal   :  -6.319174401 
 % E8         :  50.952225104 

-------------------------   ----------------
Dispersion correction           -0.019764091
-------------------------   ----------------


-------------------------   --------------------
FINAL SINGLE POINT ENERGY      -234.139872167595
-------------------------   --------------------



           ************************************************************
           *        Program running with 6 parallel MPI-processes     *
           *              working on a common directory               *
           ************************************************************
------------------------------------------------------------------------------
                         ORCA SCF GRADIENT CALCULATION
------------------------------------------------------------------------------

Nuc. rep. gradient        (SHARK) ... done (  0.0 sec)
HCore & Overlap gradient  (SHARK) ... done (  0.0 sec)
Split-RIJ-J gradient      (SHARK) ... done (  0.3 sec)
done (  3.7 sec)
XC gradient                       ... done (  0.8 sec)
Dispersion correction             ... done (  0.1 sec)

-------------------
DISPERSION GRADIENT
-------------------

   1   C   :   -0.000426203   -0.000705977    0.000047593
   2   C   :   -0.000473253   -0.000258622   -0.000152420
   3   C   :   -0.000466551    0.000255604   -0.000080121
   4   C   :   -0.000409447    0.000640756    0.000199361
   5   C   :    0.000802699   -0.000005521    0.000200912
   6   C   :    0.000676280    0.000028567   -0.000202761
   7   H   :   -0.000138592   -0.000111181   -0.000124474
   8   H   :   -0.000102743   -0.000315328    0.000175966
   9   H   :   -0.000042234   -0.000235737    0.000015697
  10   H   :    0.000124741   -0.000004752    0.000095893
  11   H   :    0.000270069   -0.000007342   -0.000080894
  12   H   :    0.000379842    0.000087312   -0.000227093
  13   H   :    0.000094222    0.000022533   -0.000082124
  14   H   :   -0.000042811    0.000215245    0.000073652
  15   H   :   -0.000093595    0.000268769    0.000225797
  16   H   :   -0.000152426    0.000125673   -0.000084983

Difference to translation invariance:
           :   -0.0000000000    0.0000000000   -0.0000000000

Difference to rotation invariance:
           :    0.0000000000   -0.0000000000    0.0000000000

Norm of the Dispersion gradient    ...    0.0019720911
RMS gradient                       ...    0.0002846468
MAX gradient                       ...    0.0008026992

------------------
CARTESIAN GRADIENT
------------------

   1   C   :   -0.000070594   -0.000053805   -0.000028663
   2   C   :    0.000079910    0.000059221    0.000040908
   3   C   :    0.000072240   -0.000137880    0.000076472
   4   C   :   -0.000097219    0.000034866   -0.000030981
   5   C   :    0.000056887    0.000119995   -0.000061315
   6   C   :   -0.000042339   -0.000030864   -0.000035155
   7   H   :   -0.000066568    0.000015053   -0.000032892
   8   H   :    0.000040593    0.000058049    0.000020890
   9   H   :    0.000009633   -0.000023086    0.000000282
  10   H   :    0.000001140   -0.000049345   -0.000007444
  11   H   :   -0.000007942   -0.000015361    0.000054433
  12   H   :    0.000009524   -0.000032725    0.000040236
  13   H   :   -0.000008777    0.000044969    0.000044109
  14   H   :   -0.000013228    0.000025538    0.000021509
  15   H   :    0.000034936   -0.000058394   -0.000061102
  16   H   :    0.000001806    0.000043769   -0.000041288

Difference to translation invariance:
           :   -0.0000000000    0.0000000000    0.0000000000

Difference to rotation invariance:
           :   -0.0001300475    0.0000491356    0.0002574174

Norm of the Cartesian gradient     ...    0.0003535843
RMS gradient                       ...    0.0000510355
MAX gradient                       ...    0.0001378796

-------
TIMINGS
-------

Total SCF gradient time     ....        4.798 sec

Densities                   ....       0.000 sec  (  0.0%)
One electron gradient       ....       0.042 sec  (  0.9%)
RI-J Coulomb gradient       ....       0.256 sec  (  5.3%)
COSX gradient               ....       3.654 sec  ( 76.2%)
XC gradient                 ....       0.792 sec  ( 16.5%)

Maximum memory used throughout the entire SCFGRAD-calculation: 28.4 MB


           ************************************************************
           *        Program running with 6 parallel MPI-processes     *
           *              working on a common directory               *
           ************************************************************

------------------------------------------------------------------------------
                              ORCA PROPERTY CALCULATIONS
------------------------------------------------------------------------------

GBWName                                 ... orca.gbw
Number of atoms                         ...     16
Number of basis functions               ...    134
Max core memory                         ...   4096 MB

Electric properties:
Dipole moment                           ... YES
Quadrupole moment                       ...  NO
Static polarizability (Dipole/Dipole)   ...  NO
Static polarizability (Dipole/Quad.)    ...  NO
Static polarizability (Quad./Quad.)     ...  NO
Static polarizability (Velocity)        ...  NO
Static hyperpolarizability              ...  NO

Atomic electric properties:
Dipole moment                           ...  NO
Quadrupole moment                       ...  NO
Static polarizability                   ...  NO

Choice of electric origin               ... Center of mass
Position of electric origin             ...    -0.375873     0.040267     0.143466

General magnetic properties:
Magnetizability                         ...  NO

EPR properties:
g-Tensor (aka g-matrix)                 ...  NO
Zero-Field splitting spin-orbit         ...  NO
Zero-field splitting spin-spin          ...  NO
Hyperfine couplings                     ...  NO (   0 nuclei)
Quadrupole couplings                    ...  NO (   0 nuclei)
Contact density                         ...  NO (   0 nuclei)

NMR properties:
Chemical shifts                         ...  NO (   0 nuclei)
Spin-rotation constants                 ...  NO (   0 nuclei)
Spin-spin couplings                     ...  NO (   0 nuclei,    0 pairs)

Choice of magnetic origin               ... GIAO
Position of magnetic origin             ...     0.000000     0.000000     0.000000

Properties with geometric perturbations:
SCF Hessian                             ...  NO
IR spectrum                             ...  NO
VCD spectrum                            ...  NO
X-ray spectroscopy properties:
SCF XES/XAS/RIXS spectra                ...  NO

SCF SOC stabilization energy            ...  NO
Diagonal Born-Oppenheimer correction    ...  NO

-------------
DIPOLE MOMENT
-------------

Method             : SCF
Type of density    : Electron Density
Multiplicity       :   1
Irrep              :   0
Energy             :  -234.1201080762016318 Eh
Basis              : AO
                                X                 Y                 Z
Electronic contribution:     -2.618798409       0.294757915       0.529941668
Nuclear contribution   :      3.259224361      -0.349156534      -1.244002798
                        -----------------------------------------
Total Dipole Moment    :      0.640425952      -0.054398619      -0.714061130
                        -----------------------------------------
Magnitude (a.u.)       :      0.960722597
Magnitude (Debye)      :      2.441962775



--------------------
Rotational spectrum 
--------------------
 
Rotational constants in cm-1:             0.143209             0.059584             0.048516 
Rotational constants in MHz :          4293.287688          1786.279316          1454.466415 

Dipole components along the rotational axes: 
x,y,z [a.u.] :    -0.567205     0.166503     0.757326 
x,y,z [Debye]:    -1.441722     0.423218     1.924970 

 

Dipole moment calculation done in   0.0 sec 

Maximum memory used throughout the entire PROP-calculation: 6.6 MB

--------------------------------
SUGGESTED CITATIONS FOR THIS RUN
--------------------------------

Below you find a list of papers that are relevant to this ORCA run
We neither can nor want to force you to cite these papers, but we appreciate if you do
You receive ORCA, which is the product of decades of hard work by many enthusiastic individuals, for free
The only thing we kindly ask in return is that you cite our papers,
We deeply appreciate it, if you show your appreciation for ORCA by not just citing the generic ORCA reference.

Please note that relegating all ORCA citations to the supporting information does *not* help us.
SI sections are not indexed - citations you put there will not count into any citation statistics
But we need these citations in order to attract the funding resources that allow us to do what we are doing

Therefore, if you are a happy ORCA user, please consider citing a few of the papers listed below in the main body of your paper

In addition to the list printed below, the program has created the file orca.bibtex that contains the list in bibtex format
You can import this file easily into all common literature databanks and citation aid programs


List of essential papers. We consider these as the minimum necessary citations

  1. Neese, F.
     Software update: the ORCA program system, version 6.0
     WIRES Comput. Molec. Sci. 2025 15(1), e70019
     doi.org/10.1002/wcms.7019

List of papers to cite with high priority. The work reported in these papers was absolutely
necessary for this run to complete.
Our perspective: the developers of density functionals and basis sets usually get cited in chemistry papers
Good! But without the algorithms to do something with them, the functionals or basis sets would not do anything.
Hence, in our opinion, the algorithm design and method developments papers are equally worthy of getting cited

  1. Neese, F.
     An improvement of the resolution of the identity approximation for the formation of the Coulomb matrix
     J. Comp. Chem. 2003 24(14), 1740-1747
     doi.org/10.1002/jcc.10318
  2. Neese, F.; Wennmohs, F.; Hansen, A.; Becker, U.
     Efficient, approximate and parallel Hartree-Fock and hybrid DFT calculations. A 'chain-of-spheres' algorithm for the Hartree-Fock exchange
     Chem. Phys. 2009 356(1-3), 98-109
     doi.org/10.1016/j.chemphys.2008.10.036
  3. Grimme, S.; Antony, J.; Ehrlich, S.; Krieg, H.
     A consistent and accurate ab initio parametrization of density functional dispersion correction (DFT-D) for the 94 elements H-Pu
     J. Chem. Phys. 2010 132 , 154104
     doi.org/10.1063/1.3382344
  4. Grimme, S.; Ehrlich, S.; Goerigk, L.
     Effect of the damping function in dispersion corrected density functional theory
     J. Comput. Chem. 2011 32(7), 1456-1465
     doi.org/10.1002/jcc.21759
  5. Helmich-Paris, B.; de Souza, B.; Neese, F.; Izsák, R.
     An improved chain of spheres for exchange algorithm
     J. Chem. Phys. 2021 155(10), 104109
     doi.org/10.1063/5.0058766
  6. Neese, F.
     The SHARK Integral Generation and Digestion System
     J. Comp. Chem. 2022 44(3), 381
     doi.org/10.1002/jcc.26942

List of suggested additional citations. These are papers that are important in the 'surrounding' of 
of this run, or papers that preceded the highly important papers. If you like your results we are grateful for a citation.

  1. Izsak, R.; Neese, F.
     An overlap fitted chain of spheres exchange method
     J. Chem. Phys. 2011 135 , 144105
     doi.org/10.1063/1.3646921
  2. Izsak, R.; Hansen, A.; Neese, F.
     The resolution of identity and chain of spheres approximations for the LPNO-CCSD singles Fock term
     Molec. Phys. 2012 110 , 2413-2417
     doi.org/10.1080/00268976.2012.687466
  3. Neese, F.
     The ORCA program system
     WIRES Comput. Molec. Sci. 2012 2(1), 73-78
     doi.org/10.1002/wcms.81
  4. Izsak, R.; Neese, F.; Klopper, W.
     Robust fitting techniques in the chain of spheres approximation to the Fock exchange: The role of the complementary space
     J. Chem. Phys. 2013 139 , 
     doi.org/10.1063/1.4819264
  5. Neese, F.
     Software update: the ORCA program system, version 4.0
     WIRES Comput. Molec. Sci. 2018 8(1), 1-6
     doi.org/10.1002/wcms.1327
  6. Neese, F.; Wennmohs, F.; Becker, U.; Riplinger, C.
     The ORCA quantum chemistry program package
     J. Chem. Phys. 2020 152(22), 224108
     doi.org/10.1063/5.0004608
  7. Neese, F.
     Software update: The ORCA program system—Version 5.0
     WIRES Comput. Molec. Sci. 2022 12(1), e1606
     doi.org/10.1002/wcms.1606

List of optional additional citations

  1. Neese, F.
     Approximate second-order SCF convergence for spin unrestricted wavefunctions
     Chem. Phys. Lett. 2000 325(1-3), 93-98
     doi.org/10.1016/s0009-2614(00)00662-x

Timings for individual modules:

Sum of individual times          ...       16.568 sec (=   0.276 min)
Startup calculation              ...        1.435 sec (=   0.024 min)   8.7 %
SCF iterations                   ...        9.435 sec (=   0.157 min)  56.9 %
Property calculations            ...        0.448 sec (=   0.007 min)   2.7 %
SCF Gradient evaluation          ...        5.250 sec (=   0.087 min)  31.7 %
                             ****ORCA TERMINATED NORMALLY****
TOTAL RUN TIME: 0 days 0 hours 0 minutes 17 seconds 141 msec
