
                                 *****************
                                 * O   R   C   A *
                                 *****************

                                            #,                                       
                                            ###                                      
                                            ####                                     
                                            #####                                    
                                            ######                                   
                                           ########,                                 
                                     ,,################,,,,,                         
                               ,,#################################,,                 
                          ,,##########################################,,             
                       ,#########################################, ''#####,          
                    ,#############################################,,   '####,        
                  ,##################################################,,,,####,       
                ,###########''''           ''''###############################       
              ,#####''   ,,,,##########,,,,          '''####'''          '####       
            ,##' ,,,,###########################,,,                        '##       
           ' ,,###''''                  '''############,,,                           
         ,,##''                                '''############,,,,        ,,,,,,###''
      ,#''                                            '''#######################'''  
     '                                                          ''''####''''         
             ,#######,   #######,   ,#######,      ##                                
            ,#'     '#,  ##    ##  ,#'     '#,    #''#        ,####,    ,#,          
            ##       ##  ##   ,#'  ##            #'  '#       #'       ,# #          
            ##       ##  #######   ##           ,######,      #####,      #          
            '#,     ,#'  ##    ##  '#,     ,#' ,#      #,     #,   #      #          
             '#######'   ##     ##  '#######'  #'      '#     '####' #    #          



                #########################################################
                #                        -***-                          #
                #          Department of theory and spectroscopy        #
                #                                                       #
                #                      Frank Neese                      #
                #                                                       #
                #     Directorship, Architecture, Infrastructure        #
                #                    SHARK, DRIVERS                     #
                #        Core code/Algorithms in most modules           #
                #                                                       #
                #        Max Planck Institute fuer Kohlenforschung      #
                #                Kaiser Wilhelm Platz 1                 #
                #                 D-45470 Muelheim/Ruhr                 #
                #                      Germany                          #
                #                                                       #
                #                  All rights reserved                  #
                #                        -***-                          #
                #########################################################


                         Program Version 6.1.0  -  RELEASE   -
                                (GIT: $679e74b$)
                          ($2025-06-10 18:02:51 +0200$)


 With contributions from (in alphabetic order):
[Max-Planck-Institut fuer Kohlenforschung]                               
  Daniel Aravena         : Magnetic Suceptibility                        
  Michael Atanasov       : Ab Initio Ligand Field Theory (pilot matlab implementation)
  Alexander A. Auer      : GIAO ZORA, VPT2 properties, NMR spectrum      
  Ute Becker             : All parallelization in ORCA, NUMFREQ, NUMCALC 
  Giovanni Bistoni       : ED, misc. LED, open-shell LED, HFLD           
  Dmytro Bykov           : pre 5.0 version of the SCF Hessian            
  Marcos Casanova-Páez   : Triplet and SCS-CIS(D). UHF-(DLPNO)-IP/EA/STEOM-CCSD. UHF-CVS-IP/STEOM-CCSD   
  Vijay G. Chilkuri      : MRCI spin determinant printing, contributions to CSF-ICE 
  Pauline Colinet        : FMM embedding                                 
  Dipayan Datta          : RHF DLPNO-CCSD density                        
  Achintya Kumar Dutta   : EOM-CC, STEOM-CC                              
  Nicolas Foglia         : Exact transition moments, OPA infrastructure, MCD improvements    
  Dmitry Ganyushin       : Spin-Orbit,Spin-Spin,Magnetic field MRCI      
  Miquel Garcia-Rates    : C-PCM and meta-GGA Hessian, CCSD/C-PCM, Gaussian charge scheme 
  Tiago L. C. Gouveia    : GS-ROHF, GS-ROCIS                             
  Yang Guo               : DLPNO-NEVPT2, F12-NEVPT2, CIM, IAO-localization        
  Andreas Hansen         : Spin unrestricted coupled pair/coupled cluster methods 
  Ingolf Harden          : AUTO-CI MPn and infrastructure                
  Benjamin Helmich-Paris : MC-RPA, TRAH-(SCF,CASSCF), AVAS, COSX integrals, SCF dyn. polar., MC-PDFT, srDFT 
  Lee Huntington         : MR-EOM, pCC                                   
  Robert Izsak           : Overlap fitted RIJCOSX, COSX-SCS-MP3, EOM     
  Riya Kayal             : Wick's Theorem for AUTO-CI, AUTO-CI UHF-CCSDT 
  Emily Kempfer          : AUTO-CI RHF CISDT and CCSDT, approximate NEVPT4
  Christian Kollmar      : KDIIS, OOCD, Brueckner-CCSD(T), CCSD density, CASPT2, CASPT2-K, improved NEVPT2 
  Axel Koslowski         : Symmetry handling                             
  Simone Kossmann        : meta-GGA functionals, TD-DFT gradient, OOMP2, (MP2 Hessian; deprecated post 5.0) 
  Lucas Lang             : DCDCAS, Hyperfine gauge corrections, ICE-SOC+SSC
  Marvin Lechner         : AUTO-CI (C++ implementation), FIC-MRCC        
  Spencer Leger          : CASSCF response                               
  Dagmar Lenk            : GEPOL surface, SMD, ORCA-2-JSON               
  Dimitrios Liakos       : Extrapolation schemes; Compound Job, Property file
  Dimitrios Manganas     : Further ROCIS development; embedding schemes. LFT, Crystal Embedding 
  Dimitrios Pantazis     : SARC Basis sets                               
  Anastasios Papadopoulos: AUTO-CI, single reference methods and gradients 
  Taras Petrenko         : pre 6.0 DFT Hessian and TD-DFT gradient,  ECA, NRVS 
  Petra Pikulova         : Analytic Raman intensities                    
  Peter Pinski           : DLPNO-MP2, DLPNO-MP2 Gradient                 
  Shashank Vittal Rao    : ES-AILFT, MagRelax                            
  Christoph Reimann      : Effective Core Potentials                     
  Marius Retegan         : Local ZFS, SOC                                
  Christoph Riplinger    : Optimizer, TS searches, QM/MM, DLPNO-CCSD(T), (RO)-DLPNO pert. Triples 
  Michael Roemelt        : Original ROCIS implementation, recursive CI coupling coefficients
  Masaaki Saitow         : Open-shell DLPNO-CCSD energy and density      
  Barbara Sandhoefer     : DKH picture change effects                    
  Yorick L. A. Schmerwitz: GMF and freeze-and-release deltaSCF, NEB S-IDPP initial path                    
  Kantharuban Sivalingam : CASSCF convergence/infrastructure, NEVPT2, NEVPT3, NEVPT4(SD), FIC-MRCI and CEPA variants
  Bernardo de Souza      : ESD, SOC TD-DFT                               
  Georgi L. Stoychev     : AutoAux, RI-MP2 NMR, DLPNO-MP2 response, X2C  
  Van Anh Tran           : RI-MP2 g-tensors                              
  Willem Van den Heuvel  : Paramagnetic NMR                              
  Zikuan Wang            : NOTCH, Electric field optimization            
  Frank Wennmohs         : Technical directorship and infrastructure     
  Hang Xu                : AUTO-CI-Response properties                   
                                                                         
[FACCTs GmbH]                                                            
  Markus Bursch, Nicolas Foglia, Miquel Garcia-Rates, Ingolf Harden, Hagen Neugebauer, Anastasios Papadopoulos, 
  Christoph Riplinger, Bernardo de Souza, Georgi L. Stoychev                                                    
                                                                 
  APM, various basis sets, CI-OPT, improved COSX, DLPNO-Multilevel,           
  DOCKER, DRACO, updates on ESD, Fragmentator, GOAT, IRC, LR-CPCM, L-BFGS, MBIS, meta-GGA TD-DFT gradient, ML-optimized integration grids, 
  MM, NACMEs, nearIR, NEB, NEB-TS, NL-DFT gradient (VV10), 2- and 3-layer-ONIOM, interface openCOSMO-RS, QMMM,   
  Crystal-QMMM, RESP, rigid body optimization, SF, symmetry and pop. for TD-DFT, various functionals, SOLVATOR                                   
                                                                         
[Other institutions]                                                     
  V. Asgeirsson          : NEB                                           
  Christoph Bannwarth    : sTDA-DFT, sTD-DFT, PBEh-3c, B97-3c, D3        
  Giovanni Bistoni       : ETS/NOCV, ADLD/ADEX, COVALED                  
  Martin Brehm           : Molecular dynamics                            
  Ronald Cardenas        : ETS/NOCV                                      
  Martina Colucci        : COVALED                                       
  Sebastian Ehlert       : rSCAN, r2SCAN, r2SCAN-3c, D4, dhf basis sets  
  Marvin Friede          : D4 for Fr, Ra, Ac-Lr                          
  Lars Goerigk           : TD-DFT with DH, B97 family of functionals     
  Stefan Grimme          : VdW corrections, initial TS optimization, DFT functionals, gCP, sTDA/sTD-DF 
  Waldemar Hujo          : DFT-NL                                        
  H. Jonsson             : NEB                                           
  Holger Kruse           : gCP                                           
  Marcel Mueller         : wB97X-3c, vDZP basis set                      
  Hagen Neugebauer       : wr2SCAN, Native XTB                           
  Gianluca Regni         : ADLD/ADEX                                     
  Tobias Risthaus        : pre 6.0 range-separated hybrid DFT and stability analysis
  Lukas Wittmann         : regularized MP2, r2SCAN double-hybrids, wr2SCAN        
                                                                         
We gratefully acknowledge several colleagues who have allowed us to      
interface, adapt or use parts of their codes:                            
  Ed Valeev, F. Pavosevic, A. Kumar             : LibInt (2-el integral package), F12 methods 
  Garnet Chan, S. Sharma, J. Yang, R. Olivares  : DMRG                   
  Ulf Ekstrom                                   : XCFun DFT Library      
  Mihaly Kallay                                 : mrcc  (arbitrary order and MRCC methods)
  Frank Weinhold                                : gennbo (NPA and NBO analysis)           
  Simon Mueller                                 : openCOSMO-RS                            
  Christopher J. Cramer and Donald G. Truhlar   : smd solvation model                     
  S Lehtola, MJT Oliveira, MAL Marques          : LibXC Library                           
  Liviu Ungur et al                             : ANISO software                          


 Your calculation uses the libint2 library for the computation of 2-el integrals
 For citations please refer to: http://libint.valeyev.net

 Your ORCA version has been built with support for libXC version: 7.0.0
 For citations please refer to: https://libxc.gitlab.io

 This ORCA versions uses:
   CBLAS   interface :  Fast vector & matrix operations
   LAPACKE interface :  Fast linear algebra routines
   SCALAPACK package :  Parallel linear algebra routines
   Shared memory     :  Shared parallel matrices
   BLAS/LAPACK       :  OpenBLAS 0.3.29  USE64BITINT DYNAMIC_ARCH NO_AFFINITY Zen SINGLE_THREADED
        Core in use  :  Zen
   Copyright (c) 2011-2014, The OpenBLAS Project


  ***********************************
  * Starting time: Wed Sep 10 13:39:53 2025
  * Host name:     wyk-Server
  * Process ID:    2316417
  * Working dir.:  /home/wyk/Documents/code/openQDC/MGMR/singlepointcalc/121/react
  ***********************************

Your calculation utilizes the atom-pairwise dispersion correction
with the Becke-Johnson damping scheme (D3BJ)


Warning: RI is on but no J-basis has been assigned. Assigning Def2/J (nothing to worry about!)
================================================================================

----- Orbital basis set information -----
Your calculation utilizes the basis: def2-SVP
   F. Weigend and R. Ahlrichs, Phys. Chem. Chem. Phys. 7, 3297 (2005).

----- AuxJ basis set information -----
Your calculation utilizes the auxiliary basis: def2/J
   H-Rn: F. Weigend, Phys. Chem. Chem. Phys. 8, 1057 (2006).
   Fr-Lr: K. Eichkorn, F. Weigend, O. Treutler, R. Ahlrichs; Theor. Chem. Acc. 97, 119 (1997).

================================================================================
                                        WARNINGS
                       Please study these warnings very carefully!
================================================================================


================================================================================
                                       INPUT FILE
================================================================================
NAME = orca.inp
|  1> ! B3LYP def2-SVP d3 EnGrad 
|  2> %pal nprocs 6 end 
|  3> *xyz 0 1 
|  4> N   1.37086845227098 -1.16513402540779 0.01444132596663
|  5> B   1.72329245520395 0.40558369152404 -0.32044605229163
|  6> B   -1.78809263048812 -0.10649353234667 0.16182320971013
|  7> N   -2.32711802382183 1.16557542059241 0.24186464533984
|  8> H   0.40917630878918 -1.24574542170892 0.36259955375023
|  9> H   1.99665027616697 -1.54582462550893 0.72738421999744
| 10> H   1.45116252963498 -1.75373223488296 -0.81764673968941
| 11> H   1.60619306742968 0.9981554417995 0.7445702837262
| 12> H   2.86928254974295 0.40371011190515 -0.75164403523939
| 13> H   0.89486333999324 0.75089431638167 -1.15333191388394
| 14> H   -1.91445876082318 -0.75859884452725 -0.84748730711707
| 15> H   -1.21463712951145 -0.55768435199565 1.13061819623777
| 16> H   -2.78919778664942 1.61987394516833 -0.53787096711626
| 17> H   -2.20164639102493 1.76907419413181 1.04670209855649
| 18> *
| 19> 
| 20>                          ****END OF INPUT****
================================================================================

                     *******************************
                     * Energy+Gradient Calculation *
                     *******************************

---------------------------------
CARTESIAN COORDINATES (ANGSTROEM)
---------------------------------
  N      1.370868   -1.165134    0.014441
  B      1.723292    0.405584   -0.320446
  B     -1.788093   -0.106494    0.161823
  N     -2.327118    1.165575    0.241865
  H      0.409176   -1.245745    0.362600
  H      1.996650   -1.545825    0.727384
  H      1.451163   -1.753732   -0.817647
  H      1.606193    0.998155    0.744570
  H      2.869283    0.403710   -0.751644
  H      0.894863    0.750894   -1.153332
  H     -1.914459   -0.758599   -0.847487
  H     -1.214637   -0.557684    1.130618
  H     -2.789198    1.619874   -0.537871
  H     -2.201646    1.769074    1.046702

----------------------------
CARTESIAN COORDINATES (A.U.)
----------------------------
  NO LB      ZA    FRAG     MASS         X           Y           Z
   0 N     7.0000    0    14.007    2.590566   -2.201784    0.027290
   1 B     5.0000    0    10.810    3.256551    0.766442   -0.605555
   2 B     5.0000    0    10.810   -3.379005   -0.201244    0.305802
   3 N     7.0000    0    14.007   -4.397616    2.202618    0.457058
   4 H     1.0000    0     1.008    0.773231   -2.354118    0.685214
   5 H     1.0000    0     1.008    3.773122   -2.921185    1.374557
   6 H     1.0000    0     1.008    2.742300   -3.314074   -1.545128
   7 H     1.0000    0     1.008    3.035265    1.886240    1.407034
   8 H     1.0000    0     1.008    5.422158    0.762902   -1.420401
   9 H     1.0000    0     1.008    1.691047    1.418985   -2.179481
  10 H     1.0000    0     1.008   -3.617803   -1.433544   -1.601519
  11 H     1.0000    0     1.008   -2.295332   -1.053871    2.136559
  12 H     1.0000    0     1.008   -5.270820    3.061118   -1.016429
  13 H     1.0000    0     1.008   -4.160509    3.343066    1.977980

--------------------------------
INTERNAL COORDINATES (ANGSTROEM)
--------------------------------
 N      0   0   0     0.000000000000     0.00000000     0.00000000
 B      1   0   0     1.644234283867     0.00000000     0.00000000
 B      1   2   0     3.334887739579    84.76635697     0.00000000
 N      3   1   2     1.383876593887   131.55274494   345.76263776
 H      1   2   3     1.025945479849   110.18745034   346.66491388
 H      1   2   3     1.022162313076   111.50744964   226.82956667
 H      1   2   3     1.022382286654   111.55373259   106.27774764
 H      2   1   3     1.224382841201   105.34756599    74.38266394
 H      2   1   3     1.224429870421   105.71620319   194.67726745
 H      2   1   3     1.224431739628   105.24415611   314.74645627
 H      3   1   2     1.208270440112    83.73225862   111.19554067
 H      3   1   2     1.212842979638    57.94941087   244.12735613
 H      4   3   1     1.013850325235   123.01987992   106.52953380
 H      4   3   1     1.013763890855   123.01912822   293.94082441

---------------------------
INTERNAL COORDINATES (A.U.)
---------------------------
 N      0   0   0     0.000000000000     0.00000000     0.00000000
 B      1   0   0     3.107152496513     0.00000000     0.00000000
 B      1   2   0     6.302024515175    84.76635697     0.00000000
 N      3   1   2     2.615147765590   131.55274494   345.76263776
 H      1   2   3     1.938755985248   110.18745034   346.66491388
 H      1   2   3     1.931606836129   111.50744964   226.82956667
 H      1   2   3     1.932022525949   111.55373259   106.27774764
 H      2   1   3     2.313748252942   105.34756599    74.38266394
 H      2   1   3     2.313837125289   105.71620319   194.67726745
 H      2   1   3     2.313840657578   105.24415611   314.74645627
 H      3   1   2     2.283300227524    83.73225862   111.19554067
 H      3   1   2     2.291941074965    57.94941087   244.12735613
 H      4   3   1     1.915899455481   123.01987992   106.52953380
 H      4   3   1     1.915736118174   123.01912822   293.94082441

---------------------
BASIS SET INFORMATION
---------------------
There are 3 groups of distinct atoms

 Group   1 Type N   : 7s4p1d contracted to 3s2p1d pattern {511/31/1}
 Group   2 Type B   : 7s4p1d contracted to 3s2p1d pattern {511/31/1}
 Group   3 Type H   : 4s1p contracted to 2s1p pattern {31/1}

Atom   0N    basis set group =>   1
Atom   1B    basis set group =>   2
Atom   2B    basis set group =>   2
Atom   3N    basis set group =>   1
Atom   4H    basis set group =>   3
Atom   5H    basis set group =>   3
Atom   6H    basis set group =>   3
Atom   7H    basis set group =>   3
Atom   8H    basis set group =>   3
Atom   9H    basis set group =>   3
Atom  10H    basis set group =>   3
Atom  11H    basis set group =>   3
Atom  12H    basis set group =>   3
Atom  13H    basis set group =>   3
---------------------------------
AUXILIARY/J BASIS SET INFORMATION
---------------------------------
There are 3 groups of distinct atoms

 Group   1 Type N   : 12s5p4d2f1g contracted to 6s4p3d1f1g pattern {711111/2111/211/2/1}
 Group   2 Type B   : 12s5p4d2f1g contracted to 6s4p3d1f1g pattern {711111/2111/211/2/1}
 Group   3 Type H   : 5s2p1d contracted to 3s1p1d pattern {311/2/1}

Atom   0N    basis set group =>   1
Atom   1B    basis set group =>   2
Atom   2B    basis set group =>   2
Atom   3N    basis set group =>   1
Atom   4H    basis set group =>   3
Atom   5H    basis set group =>   3
Atom   6H    basis set group =>   3
Atom   7H    basis set group =>   3
Atom   8H    basis set group =>   3
Atom   9H    basis set group =>   3
Atom  10H    basis set group =>   3
Atom  11H    basis set group =>   3
Atom  12H    basis set group =>   3
Atom  13H    basis set group =>   3


           ************************************************************
           *        Program running with 6 parallel MPI-processes     *
           *              working on a common directory               *
           ************************************************************
------------------------------------------------------------------------------
                             ORCA STARTUP CALCULATIONS
                           -- RI-GTO INTEGRALS CHOSEN --
------------------------------------------------------------------------------
------------------------------------------------------------------------------
                   ___                                                        
                  /   \      - P O W E R E D   B Y -                         
                 /     \                                                     
                 |  |  |   _    _      __       _____    __    __             
                 |  |  |  | |  | |    /  \     |  _  \  |  |  /  |          
                  \  \/   | |  | |   /    \    | | | |  |  | /  /          
                 / \  \   | |__| |  /  /\  \   | |_| |  |  |/  /          
                |  |  |   |  __  | /  /__\  \  |    /   |      \           
                |  |  |   | |  | | |   __   |  |    \   |  |\   \          
                \     /   | |  | | |  |  |  |  | |\  \  |  | \   \       
                 \___/    |_|  |_| |__|  |__|  |_| \__\ |__|  \__/        
                                                                              
                      - O R C A' S   B I G   F R I E N D -                    
                                      &                                       
                       - I N T E G R A L  F E E D E R -                       
                                                                              
 v1 FN, 2020, v2 2021, v3 2022-2024                                           
------------------------------------------------------------------------------


----------------------
SHARK INTEGRAL PACKAGE
----------------------

Number of atoms                             ...     14
Number of basis functions                   ...    106
Number of shells                            ...     54
Maximum angular momentum                    ...      2
Integral batch strategy                     ... SHARK/LIBINT Hybrid
RI-J (if used) integral strategy            ... SPLIT-RIJ (Revised 2003 algorithm where possible)
Printlevel                                  ...      1
Contraction scheme used                     ... SEGMENTED contraction
Prescreening option                         ... SCHWARTZ
   Thresh                                   ... 2.500e-11
   Tcut                                     ... 2.500e-12
   Tpresel                                  ... 2.500e-12 
Coulomb Range Separation                    ... NOT USED
Exchange Range Separation                   ... NOT USED
Multipole approximations                    ... NOT USED
Finite Nucleus Model                        ... NOT USED
CABS basis                                  ... NOT available
Auxiliary Coulomb fitting basis             ... AVAILABLE
   # of basis functions in Aux-J            ...    306
   # of shells in Aux-J                     ...    110
   Maximum angular momentum in Aux-J        ...      4
Auxiliary J/K fitting basis                 ... NOT available
Auxiliary Correlation fitting basis         ... NOT available
Auxiliary 'external' fitting basis          ... NOT available

Checking pre-screening integrals            ... done (  0.0 sec) Dimension = 54
   => SHARK Basis and OBASIS are compatible. Storing Pre-screening
Shell pair information
Shell pair cut-off parameter TPreSel        ...   2.5e-12
Total number of shell pairs                 ...      1485
Shell pairs after pre-screening             ...      1410
Total number of primitive shell pairs       ...      4933
Primitive shell pairs kept                  ...      3677
          la=0 lb=0:    511 shell pairs
          la=1 lb=0:    540 shell pairs
          la=1 lb=1:    159 shell pairs
          la=2 lb=0:    124 shell pairs
          la=2 lb=1:     67 shell pairs
          la=2 lb=2:      9 shell pairs

Checking whether 4 symmetric matrices of dimension 106 fit in memory
:Max Core in MB      =   4096.00
 MB in use           =      5.05
 MB left             =   4090.95
 MB needed           =      0.17
 Data fit in memory  = YES
Calculating RI/J V-Matrix + Cholesky decomp.... done (  0.0 sec)
Calculating Nuclear repulsion               ... done (  0.0 sec) ENN=    111.755625222705 Eh

Diagonalization of the overlap matrix:
Smallest eigenvalue                        ... 5.078e-03
Time for diagonalization                   ...    0.002 sec
Threshold for overlap eigenvalues          ... 1.000e-07
Number of eigenvalues below threshold      ... 0
Time for construction of square roots      ...    0.001 sec
Total time needed                          ...    0.004 sec

-------------------
DFT GRID GENERATION
-------------------

General Integration Accuracy     IntAcc      ... 4.388
Radial Grid Type                 RadialGrid  ... OptM3 with GC (2021)
Angular Grid (max. ang.)         AngularGrid ... 4 (Lebedev-302)
Angular grid pruning method      GridPruning ... 4 (adaptive)
Weight generation scheme         WeightScheme... mBecke (2022)
Basis function cutoff            BFCut       ... 1.0000e-11
Integration weight cutoff        WCut        ... 1.0000e-14
Partially contracted basis set               ... off
Rotationally invariant grid construction     ... off
Angular grids for H and He will be reduced by one unit

Total number of grid points                  ...    56637
Total number of batches                      ...      893
Average number of points per batch           ...       63
Average number of grid points per atom       ...     4046

--------------------
COSX GRID GENERATION
--------------------

GRIDX 1
-------
General Integration Accuracy     IntAcc      ... 3.816
Radial Grid Type                 RadialGrid  ... OptM3 with GC (2021)
Angular Grid (max. ang.)         AngularGrid ... 1 (Lebedev-50)
Angular grid pruning method      GridPruning ... 4 (adaptive)
Weight generation scheme         WeightScheme... mBecke (2022)
Basis function cutoff            BFCut       ... 1.0000e-11
Integration weight cutoff        WCut        ... 1.0000e-14
Partially contracted basis set               ... on
Rotationally invariant grid construction     ... off
Angular grids for H and He will be reduced by one unit

Total number of grid points                  ...     7344
Total number of batches                      ...       66
Average number of points per batch           ...      111
Average number of grid points per atom       ...      525
UseSFitting                                  ... on

GRIDX 2
-------
General Integration Accuracy     IntAcc      ... 4.020
Radial Grid Type                 RadialGrid  ... OptM3 with GC (2021)
Angular Grid (max. ang.)         AngularGrid ... 2 (Lebedev-110)
Angular grid pruning method      GridPruning ... 4 (adaptive)
Weight generation scheme         WeightScheme... mBecke (2022)
Basis function cutoff            BFCut       ... 1.0000e-11
Integration weight cutoff        WCut        ... 1.0000e-14
Partially contracted basis set               ... on
Rotationally invariant grid construction     ... off
Angular grids for H and He will be reduced by one unit

Total number of grid points                  ...    15042
Total number of batches                      ...      124
Average number of points per batch           ...      121
Average number of grid points per atom       ...     1074
UseSFitting                                  ... on

GRIDX 3
-------
General Integration Accuracy     IntAcc      ... 4.338
Radial Grid Type                 RadialGrid  ... OptM3 with GC (2021)
Angular Grid (max. ang.)         AngularGrid ... 3 (Lebedev-194)
Angular grid pruning method      GridPruning ... 4 (adaptive)
Weight generation scheme         WeightScheme... mBecke (2022)
Basis function cutoff            BFCut       ... 1.0000e-11
Integration weight cutoff        WCut        ... 1.0000e-14
Partially contracted basis set               ... on
Rotationally invariant grid construction     ... off
Angular grids for H and He will be reduced by one unit

Total number of grid points                  ...    32774
Total number of batches                      ...      263
Average number of points per batch           ...      124
Average number of grid points per atom       ...     2341
UseSFitting                                  ... on
Grids setup in   0.7 sec
Initializing property integral containers    ... done (  0.0 sec)

SHARK setup successfully completed in   0.8 seconds

Maximum memory used throughout the entire STARTUP-calculation: 15.7 MB


           ************************************************************
           *        Program running with 6 parallel MPI-processes     *
           *              working on a common directory               *
           ************************************************************
-------------------------------------------------------------------------------
                                 ORCA GUESS
                   Start orbitals & Density for SCF / CASSCF
-------------------------------------------------------------------------------

------------
SCF SETTINGS
------------
Hamiltonian:
 Density Functional     Method          .... DFT(GTOs)
 Exchange Functional    Exchange        .... B88
   X-Alpha parameter    XAlpha          ....  0.666667
   Becke's b parameter  XBeta           ....  0.004200
 Correlation Functional Correlation     .... LYP
 LDA part of GGA corr.  LDAOpt          .... VWN-5
 Gradients option       PostSCFGGA      .... off
 Hybrid DFT is turned on
   Fraction HF Exchange ScalHFX         ....  0.200000
   Scaling of DF-GGA-X  ScalDFX         ....  0.720000
   Scaling of DF-GGA-C  ScalDFC         ....  0.810000
   Scaling of DF-LDA-C  ScalLDAC        ....  1.000000
   Perturbative correction              ....  0.000000
   NL short-range parameter             ....  4.800000
 RI-approximation to the Coulomb term is turned on
   Number of AuxJ basis functions       .... 306
   RIJ-COSX (HFX calculated with COS-X)).... on


General Settings:
 Integral files         IntName         .... orca
 Hartree-Fock type      HFTyp           .... RHF
 Total Charge           Charge          ....    0
 Multiplicity           Mult            ....    1
 Number of Electrons    NEL             ....   34
 Basis Dimension        Dim             ....  106
 Nuclear Repulsion      ENuc            ....    111.7556252227 Eh

Convergence Acceleration:
 AO-DIIS                CNVDIIS         .... on
   Start iteration      DIISMaxIt       ....    12
   Startup error        DIISStart       ....  0.200000
   # of expansion vecs  DIISMaxEq       ....     5
   Bias factor          DIISBfac        ....   1.050
   Max. coefficient     DIISMaxC        ....  10.000
 MO-DIIS                CNVKDIIS        .... off
 Trust-Rad. Augm. Hess. CNVTRAH         .... auto
   Auto Start mean grad. ratio tolernc. ....  1.125000
   Auto Start start iteration           ....    50
   Auto Start num. interpolation iter.  ....    10
   Max. Number of Micro iterations      ....    24
   Max. Number of Macro iterations      .... Maxiter - #DIIS iter
   Number of Davidson start vectors     ....     2
   Converg. threshold    (grad. norm)   ....   1.000e-05
   Grad. Scal. Fac. for Micro threshold ....   0.100
   Minimum threshold for Micro iter.    ....   1.000e-02
   NR start threshold (gradient norm)   ....   1.000e-04
   Initial trust radius                 ....   0.400
   Minimum AH scaling param. (alpha)    ....   1.000
   Maximum AH scaling param. (alpha)    .... 1000.000
   Quad. conv. algorithm                .... NR
   White noise on init. David. guess    .... on
   Maximum white noise                  ....   0.010
   Pseudo random numbers                .... off
   Inactive MOs                         .... canonical
   Orbital update algorithm             .... Taylor
   Preconditioner                       .... Diag
   Full preconditioner red. dimension   ....   250
 SOSCF                 CNVSOSCF           .... on
   Start iteration     SOSCFMaxIt         ....   150
   Startup grad/error  SOSCFStart         ....  0.003300
   Hessian update      SOSCFHessUp        .... L-BFGS
   Autom. constraints  SOSCFAutoConstrain .... off
 Level Shifting         CNVShift        .... on
   Level shift para.    LevelShift      ....    0.2500
   Turn off err/grad.   ShiftErr        ....    0.0010
 Zerner damping         CNVZerner       .... off
 Static damping         CNVDamp         .... on
   Fraction old density DampFac         ....    0.7000
   Max. Damping (<1)    DampMax         ....    0.9800
   Min. Damping (>=0)   DampMin         ....    0.0000
   Turn off err/grad.   DampErr         ....    0.1000

SCF Procedure:
 Maximum # iterations   MaxIter         ....   125
 SCF integral mode      SCFMode         .... Direct
   Integral package                     .... SHARK and LIBINT hybrid scheme
 Reset frequency        DirectResetFreq ....    20
 Integral Threshold     Thresh          ....  2.500e-11 Eh
 Primitive CutOff       TCut            ....  2.500e-12 Eh

Convergence Tolerance:
 Convergence Check Mode ConvCheckMode   .... Total+1el-Energy
 Convergence forced     ConvForced      .... 0
 Energy Change          TolE            ....  1.000e-08 Eh
 1-El. energy change                    ....  1.000e-05 Eh
 Orbital Gradient       TolG            ....  1.000e-05
 Orbital Rotation angle TolX            ....  1.000e-05
 DIIS Error             TolErr          ....  5.000e-07

------------------------------
INITIAL GUESS: MODEL POTENTIAL
------------------------------
Loading Hartree-Fock densities                     ... done
Calculating cut-offs                               ... done
Initializing the effective Hamiltonian             ... done
Setting up the integral package (SHARK)            ... done
Starting the Coulomb interaction                   ... done (   0.0 sec)
Making the grid                                    ... done (   0.1 sec)
Mapping shells                                     ... done
Starting the XC term evaluation                    ... done (   0.0 sec)
  promolecular density results
     # of electrons  =     33.996559408
     EX              =    -23.714064327
     EC              =     -1.037732374
     EX+EC           =    -24.751796701
Transforming the Hamiltonian                       ... done (   0.0 sec)
Diagonalizing the Hamiltonian                      ... done (   0.0 sec)
Back transforming the eigenvectors                 ... done (   0.0 sec)
Now organizing SCF variables                       ... done
                      ------------------
                      INITIAL GUESS DONE (   0.1 sec)
                      ------------------
             **** ENERGY FILE WAS UPDATED (orca.en.tmp) ****
Finished Guess after   0.3 sec
Maximum memory used throughout the entire GUESS-calculation: 7.4 MB


           ************************************************************
           *        Program running with 6 parallel MPI-processes     *
           *              working on a common directory               *
           ************************************************************

-------------------------------------------------------------------------------------------
                                      ORCA LEAN-SCF
                              memory conserving SCF solver
-------------------------------------------------------------------------------------------

----------------------------------------D-I-I-S--------------------------------------------
Iteration    Energy (Eh)           Delta-E    RMSDP     MaxDP     DIISErr   Damp  Time(sec)
-------------------------------------------------------------------------------------------
               ***  Starting incremental Fock matrix formation  ***
    1    -164.7802870491558451     0.00e+00  1.13e-02  9.35e-02  2.75e-01  0.700   0.5
    2    -164.8901298672450935    -1.10e-01  8.12e-03  6.18e-02  1.24e-01  0.700   0.3
                               ***Turning on AO-DIIS***
    3    -164.9353980986978740    -4.53e-02  3.52e-03  2.76e-02  3.96e-02  0.700   0.3
    4    -164.9622129660687619    -2.68e-02  5.82e-03  3.71e-02  1.88e-02  0.000   0.3
    5    -165.0201106346658548    -5.79e-02  1.17e-03  8.79e-03  8.74e-03  0.000   0.4
                              *** Initializing SOSCF ***
---------------------------------------S-O-S-C-F--------------------------------------
Iteration    Energy (Eh)           Delta-E    RMSDP     MaxDP     MaxGrad    Time(sec)
--------------------------------------------------------------------------------------
    6    -165.0205441873425798    -4.34e-04  3.28e-04  2.17e-03  1.63e-03     0.3
               *** Restarting incremental Fock matrix formation ***
    7    -165.0205315480489503     1.26e-05  1.96e-04  1.16e-03  2.42e-04     0.5
    8    -165.0205329917226322    -1.44e-06  6.05e-05  6.17e-04  2.28e-04     0.4
    9    -165.0205341766541665    -1.18e-06  2.84e-05  2.64e-04  8.02e-05     0.4
   10    -165.0205341664166099     1.02e-08  1.49e-05  1.35e-04  6.68e-05     0.4
   11    -165.0205342579903345    -9.16e-08  2.80e-06  2.07e-05  6.38e-06     0.4
   12    -165.0205342627868959    -4.80e-09  1.11e-06  1.04e-05  5.21e-06     0.3
                 **** Energy Check signals convergence ****

               *****************************************************
               *                     SUCCESS                       *
               *           SCF CONVERGED AFTER  12 CYCLES          *
               *****************************************************

Recomputing exchange energy using gridx3       ... done (    0.636 sec)
Old exchange energy                            :     -4.896178517 Eh
New exchange energy                            :     -4.896177280 Eh
Exchange energy change after final integration :      0.000001236 Eh
Total energy after final integration           :   -165.020533024 Eh
             **** ENERGY FILE WAS UPDATED (orca.en.tmp) ****

----------------
TOTAL SCF ENERGY
----------------

Total Energy       :       -165.02053302448937 Eh           -4490.43699 eV

Components:
Nuclear Repulsion  :        111.75562522270532 Eh            3041.02517 eV
Electronic Energy  :       -276.77615948339934 Eh           -7531.46219 eV
One Electron Energy:       -441.86390988437199 Eh          -12023.72826 eV
Two Electron Energy:        165.08775040097265 Eh            4492.26607 eV

Virial components:
Potential Energy   :       -328.06114219443026 Eh           -8926.99752 eV
Kinetic Energy     :        163.04060916994089 Eh            4436.56053 eV
Virial Ratio       :          2.01214374666918

DFT components:
N(Alpha)           :       17.000028116030 electrons
N(Beta)            :       17.000028116030 electrons
N(Total)           :       34.000056232059 electrons
E(X)               :      -19.383721232350 Eh       
E(C)               :       -1.246179842051 Eh       
E(XC)              :      -20.629901074401 Eh       

---------------
SCF CONVERGENCE
---------------

  Last Energy change         ...    4.7966e-09  Tolerance :   1.0000e-08
  Last MAX-Density change    ...    1.0390e-05  Tolerance :   1.0000e-07
  Last RMS-Density change    ...    1.1139e-06  Tolerance :   5.0000e-09
  Last DIIS Error            ...    1.6281e-03  Tolerance :   5.0000e-07
  Last Orbital Gradient      ...    5.2147e-06  Tolerance :   1.0000e-05
  Last Orbital Rotation      ...    4.9909e-06  Tolerance :   1.0000e-05


----------------
ORBITAL ENERGIES
----------------

  NO   OCC          E(Eh)            E(eV) 
   0   2.0000     -14.394189      -391.6858 
   1   2.0000     -14.332370      -390.0036 
   2   2.0000      -6.751631      -183.7212 
   3   2.0000      -6.680885      -181.7961 
   4   2.0000      -0.924329       -25.1523 
   5   2.0000      -0.858238       -23.3538 
   6   2.0000      -0.541999       -14.7485 
   7   2.0000      -0.536573       -14.6009 
   8   2.0000      -0.519624       -14.1397 
   9   2.0000      -0.512072       -13.9342 
  10   2.0000      -0.497169       -13.5287 
  11   2.0000      -0.398801       -10.8519 
  12   2.0000      -0.342061        -9.3080 
  13   2.0000      -0.324614        -8.8332 
  14   2.0000      -0.303434        -8.2569 
  15   2.0000      -0.261719        -7.1217 
  16   2.0000      -0.260920        -7.1000 
  17   0.0000       0.002747         0.0748 
  18   0.0000       0.035003         0.9525 
  19   0.0000       0.055623         1.5136 
  20   0.0000       0.092266         2.5107 
  21   0.0000       0.102921         2.8006 
  22   0.0000       0.127829         3.4784 
  23   0.0000       0.148352         4.0369 
  24   0.0000       0.166728         4.5369 
  25   0.0000       0.183124         4.9830 
  26   0.0000       0.194060         5.2806 
  27   0.0000       0.205810         5.6004 
*Only the first 10 virtual orbitals were printed.

                    ********************************
                    * MULLIKEN POPULATION ANALYSIS *
                    ********************************

-----------------------
MULLIKEN ATOMIC CHARGES
-----------------------
   0 N :    0.031003
   1 B :   -0.156874
   2 B :   -0.041369
   3 N :   -0.039563
   4 H :    0.128602
   5 H :    0.142351
   6 H :    0.142439
   7 H :   -0.108774
   8 H :   -0.094194
   9 H :   -0.097879
  10 H :   -0.061581
  11 H :   -0.093496
  12 H :    0.123255
  13 H :    0.126078
Sum of atomic charges:    0.0000000

--------------------------------
MULLIKEN REDUCED ORBITAL CHARGES
--------------------------------
  0 N s       :     3.305241  s :     3.305241
      pz      :     1.134704  p :     3.647829
      px      :     1.160529
      py      :     1.352596
      dz2     :     0.001074  d :     0.015927
      dxz     :     0.003374
      dyz     :     0.006110
      dx2y2   :     0.003036
      dxy     :     0.002332

  1 B s       :     2.886280  s :     2.886280
      pz      :     0.877972  p :     2.213057
      px      :     0.844333
      py      :     0.490752
      dz2     :     0.010899  d :     0.057537
      dxz     :     0.009306
      dyz     :     0.009717
      dx2y2   :     0.020791
      dxy     :     0.006824

  2 B s       :     2.940987  s :     2.940987
      pz      :     0.816410  p :     2.030202
      px      :     0.484649
      py      :     0.729143
      dz2     :     0.010782  d :     0.070179
      dxz     :     0.005121
      dyz     :     0.020206
      dx2y2   :     0.016883
      dxy     :     0.017188

  3 N s       :     3.293759  s :     3.293759
      pz      :     1.091926  p :     3.734000
      px      :     1.472627
      py      :     1.169447
      dz2     :     0.001493  d :     0.011803
      dxz     :     0.001406
      dyz     :     0.006147
      dx2y2   :     0.001174
      dxy     :     0.001583

  4 H s       :     0.822533  s :     0.822533
      pz      :     0.010965  p :     0.048865
      px      :     0.027154
      py      :     0.010746

  5 H s       :     0.811952  s :     0.811952
      pz      :     0.017095  p :     0.045696
      px      :     0.016413
      py      :     0.012188

  6 H s       :     0.811950  s :     0.811950
      pz      :     0.021342  p :     0.045611
      px      :     0.009521
      py      :     0.014748

  7 H s       :     1.097728  s :     1.097728
      pz      :     0.006212  p :     0.011046
      px      :     0.002017
      py      :     0.002818

  8 H s       :     1.083233  s :     1.083233
      pz      :     0.002795  p :     0.010961
      px      :     0.007462
      py      :     0.000704

  9 H s       :     1.087014  s :     1.087014
      pz      :     0.004943  p :     0.010865
      px      :     0.004332
      py      :     0.001590

 10 H s       :     1.049529  s :     1.049529
      pz      :     0.007718  p :     0.012052
      px      :     0.000954
      py      :     0.003381

 11 H s       :     1.081813  s :     1.081813
      pz      :     0.007380  p :     0.011682
      px      :     0.002532
      py      :     0.001770

 12 H s       :     0.830218  s :     0.830218
      pz      :     0.018818  p :     0.046527
      px      :     0.014493
      py      :     0.013216

 13 H s       :     0.827359  s :     0.827359
      pz      :     0.019376  p :     0.046563
      px      :     0.011822
      py      :     0.015365



                     *******************************
                     * LOEWDIN POPULATION ANALYSIS *
                     *******************************

----------------------
LOEWDIN ATOMIC CHARGES
----------------------
   0 N :    0.227195
   1 B :   -0.369373
   2 B :   -0.135860
   3 N :    0.071177
   4 H :    0.100110
   5 H :    0.104601
   6 H :    0.105390
   7 H :   -0.060969
   8 H :   -0.060116
   9 H :   -0.056699
  10 H :   -0.045852
  11 H :   -0.052380
  12 H :    0.086173
  13 H :    0.086602

-------------------------------
LOEWDIN REDUCED ORBITAL CHARGES
-------------------------------
  0 N s       :     3.019626  s :     3.019626
      pz      :     1.179003  p :     3.713207
      px      :     1.190382
      py      :     1.343822
      dz2     :     0.003932  d :     0.039972
      dxz     :     0.009333
      dyz     :     0.013562
      dx2y2   :     0.008602
      dxy     :     0.004543

  1 B s       :     2.744927  s :     2.744927
      pz      :     0.942618  p :     2.471132
      px      :     0.937823
      py      :     0.590692
      dz2     :     0.027049  d :     0.153314
      dxz     :     0.027176
      dyz     :     0.028714
      dx2y2   :     0.054409
      dxy     :     0.015966

  2 B s       :     2.770193  s :     2.770193
      pz      :     0.875265  p :     2.187519
      px      :     0.528616
      py      :     0.783637
      dz2     :     0.028543  d :     0.178149
      dxz     :     0.014810
      dyz     :     0.051879
      dx2y2   :     0.041449
      dxy     :     0.041468

  3 N s       :     3.026915  s :     3.026915
      pz      :     1.175534  p :     3.868976
      px      :     1.420327
      py      :     1.273115
      dz2     :     0.004964  d :     0.032932
      dxz     :     0.003760
      dyz     :     0.017521
      dx2y2   :     0.002620
      dxy     :     0.004067

  4 H s       :     0.781039  s :     0.781039
      pz      :     0.024223  p :     0.118851
      px      :     0.067879
      py      :     0.026749

  5 H s       :     0.783703  s :     0.783703
      pz      :     0.041650  p :     0.111697
      px      :     0.037433
      py      :     0.032614

  6 H s       :     0.783039  s :     0.783039
      pz      :     0.050920  p :     0.111571
      px      :     0.019255
      py      :     0.041396

  7 H s       :     1.032183  s :     1.032183
      pz      :     0.014705  p :     0.028786
      px      :     0.006488
      py      :     0.007593

  8 H s       :     1.031053  s :     1.031053
      pz      :     0.008215  p :     0.029063
      px      :     0.017178
      py      :     0.003670

  9 H s       :     1.027535  s :     1.027535
      pz      :     0.012306  p :     0.029164
      px      :     0.011487
      py      :     0.005372

 10 H s       :     1.014833  s :     1.014833
      pz      :     0.018020  p :     0.031019
      px      :     0.003638
      py      :     0.009361

 11 H s       :     1.022245  s :     1.022245
      pz      :     0.016701  p :     0.030135
      px      :     0.006719
      py      :     0.006715

 12 H s       :     0.796198  s :     0.796198
      pz      :     0.048152  p :     0.117629
      px      :     0.040404
      py      :     0.029073

 13 H s       :     0.795632  s :     0.795632
      pz      :     0.049898  p :     0.117765
      px      :     0.031460
      py      :     0.036407



                      *****************************
                      * MAYER POPULATION ANALYSIS *
                      *****************************

  NA   - Mulliken gross atomic population
  ZA   - Total nuclear charge
  QA   - Mulliken gross atomic charge
  VA   - Mayer's total valence
  BVA  - Mayer's bonded valence
  FA   - Mayer's free valence

  ATOM       NA         ZA         QA         VA         BVA        FA
  0 N      6.9690     7.0000     0.0310     3.6480     3.6480     0.0000
  1 B      5.1569     5.0000    -0.1569     3.6875     3.6875    -0.0000
  2 B      5.0414     5.0000    -0.0414     3.6460     3.6460     0.0000
  3 N      7.0396     7.0000    -0.0396     3.5534     3.5534    -0.0000
  4 H      0.8714     1.0000     0.1286     1.0220     1.0220     0.0000
  5 H      0.8576     1.0000     0.1424     0.9829     0.9829     0.0000
  6 H      0.8576     1.0000     0.1424     0.9830     0.9830    -0.0000
  7 H      1.1088     1.0000    -0.1088     0.9661     0.9661    -0.0000
  8 H      1.0942     1.0000    -0.0942     0.9561     0.9561     0.0000
  9 H      1.0979     1.0000    -0.0979     0.9669     0.9669    -0.0000
 10 H      1.0616     1.0000    -0.0616     0.9597     0.9597     0.0000
 11 H      1.0935     1.0000    -0.0935     0.9396     0.9396    -0.0000
 12 H      0.8767     1.0000     0.1233     0.9930     0.9930    -0.0000
 13 H      0.8739     1.0000     0.1261     0.9921     0.9921    -0.0000

  Mayer bond orders larger than 0.100000
B(  0-N ,  1-B ) :   0.7727 B(  0-N ,  4-H ) :   0.9555 B(  0-N ,  5-H ) :   0.9648 
B(  0-N ,  6-H ) :   0.9686 B(  1-B ,  7-H ) :   0.9714 B(  1-B ,  8-H ) :   0.9689 
B(  1-B ,  9-H ) :   0.9518 B(  2-B ,  3-N ) :   1.6450 B(  2-B , 10-H ) :   0.9652 
B(  2-B , 11-H ) :   0.9158 B(  3-N , 12-H ) :   0.9578 B(  3-N , 13-H ) :   0.9544 


-------
TIMINGS
-------

Total SCF time: 0 days 0 hours 0 min 5 sec 

Total time                  ....       5.603 sec
Sum of individual times     ....       5.253 sec  ( 93.7%)

SCF preparation             ....       0.176 sec  (  3.1%)
Fock matrix formation       ....       4.871 sec  ( 86.9%)
  Startup                   ....       0.004 sec  (  0.1% of F)
  Split-RI-J                ....       0.390 sec  (  8.0% of F)
  Chain of spheres X        ....       3.507 sec  ( 72.0% of F)
  XC integration            ....       1.128 sec  ( 23.2% of F)
    XC Preparation          ....       0.000 sec  (  0.0% of XC)
    Basis function eval.    ....       0.377 sec  ( 33.5% of XC)
    Density eval.           ....       0.188 sec  ( 16.7% of XC)
    XC-Functional eval.     ....       0.085 sec  (  7.6% of XC)
    XC-Potential eval.      ....       0.196 sec  ( 17.3% of XC)
Diagonalization             ....       0.000 sec  (  0.0%)
Density matrix formation    ....       0.027 sec  (  0.5%)
Total Energy calculation    ....       0.018 sec  (  0.3%)
Population analysis         ....       0.010 sec  (  0.2%)
Orbital Transformation      ....       0.014 sec  (  0.3%)
Orbital Orthonormalization  ....       0.000 sec  (  0.0%)
DIIS solution               ....       0.081 sec  (  1.5%)
SOSCF solution              ....       0.055 sec  (  1.0%)
Finished LeanSCF after   5.6 sec

Maximum memory used throughout the entire LEANSCF-calculation: 9.4 MB


-------------------------------------------------------------------------------
                          DFT DISPERSION CORRECTION                            
                                                                               
                              DFTD3 V3.1  Rev 1                                
                          USING Becke-Johnson damping                          
-------------------------------------------------------------------------------
The B3LYP functional is recognized
Active option DFTDOPT                   ...         4   

molecular C6(AA) [au] = 1327.018023 


            DFT-D V3
 parameters
 s6 scaling factor         :     1.0000 
 a1 scaling factor         :     0.3981 
 s8 scaling factor         :     1.9889 
 a2 scaling factor         :     4.4211 
 ad hoc parameters k1-k3   :    16.0000     1.3333    -4.0000 

 Edisp/kcal,au: -7.890978464524  -0.012575073284 
 E6   /kcal   :  -3.989559600 
 E8   /kcal   :  -3.901418864 
 % E8         :  49.441509464 

-------------------------   ----------------
Dispersion correction           -0.012575073
-------------------------   ----------------


-------------------------   --------------------
FINAL SINGLE POINT ENERGY      -165.033108097773
-------------------------   --------------------



           ************************************************************
           *        Program running with 6 parallel MPI-processes     *
           *              working on a common directory               *
           ************************************************************
------------------------------------------------------------------------------
                         ORCA SCF GRADIENT CALCULATION
------------------------------------------------------------------------------

Nuc. rep. gradient        (SHARK) ... done (  0.0 sec)
HCore & Overlap gradient  (SHARK) ... done (  0.0 sec)
Split-RIJ-J gradient      (SHARK) ... done (  0.2 sec)
done (  2.1 sec)
XC gradient                       ... done (  0.5 sec)
Dispersion correction             ... done (  0.1 sec)

-------------------
DISPERSION GRADIENT
-------------------

   1   N   :    0.000354434   -0.000109880   -0.000025116
   2   B   :    0.000470213    0.000176758   -0.000106255
   3   B   :   -0.000624025   -0.000065991    0.000077653
   4   N   :   -0.000306734    0.000154630    0.000038939
   5   H   :    0.000073141   -0.000174745    0.000053519
   6   H   :    0.000105073   -0.000141132    0.000063343
   7   H   :    0.000104077   -0.000175094   -0.000061619
   8   H   :    0.000209299    0.000066460   -0.000123243
   9   H   :   -0.000066052    0.000096570    0.000018168
  10   H   :    0.000344531    0.000093243   -0.000024032
  11   H   :   -0.000213041   -0.000064863   -0.000038059
  12   H   :   -0.000254455   -0.000062824    0.000095595
  13   H   :   -0.000098606    0.000093290   -0.000026942
  14   H   :   -0.000097855    0.000113578    0.000058048

Difference to translation invariance:
           :   -0.0000000000    0.0000000000   -0.0000000000

Difference to rotation invariance:
           :   -0.0000000000   -0.0000000000   -0.0000000000

Norm of the Dispersion gradient    ...    0.0011914482
RMS gradient                       ...    0.0001838445
MAX gradient                       ...    0.0006240248

------------------
CARTESIAN GRADIENT
------------------

   1   N   :    0.000241842    0.000023975    0.000135182
   2   B   :   -0.000175986    0.000011901   -0.000049031
   3   B   :    0.000136159    0.000051591    0.000218271
   4   N   :   -0.000187638    0.000073351    0.000072527
   5   H   :   -0.000089907   -0.000125412   -0.000368675
   6   H   :   -0.000091642    0.000091236    0.000054591
   7   H   :   -0.000025856   -0.000061369    0.000045382
   8   H   :   -0.000068163   -0.000017504   -0.000059285
   9   H   :    0.000015845   -0.000023963    0.000040852
  10   H   :    0.000035601   -0.000000361    0.000038565
  11   H   :    0.000026131    0.000015912   -0.000052117
  12   H   :    0.000063762    0.000033227    0.000008614
  13   H   :    0.000014794   -0.000021719   -0.000111796
  14   H   :    0.000105058   -0.000050865    0.000026921

Difference to translation invariance:
           :    0.0000000000    0.0000000000    0.0000000000

Difference to rotation invariance:
           :   -0.0000281047    0.0000803552    0.0000086854

Norm of the Cartesian gradient     ...    0.0006794300
RMS gradient                       ...    0.0001048383
MAX gradient                       ...    0.0003686755

-------
TIMINGS
-------

Total SCF gradient time     ....        2.846 sec

Densities                   ....       0.000 sec  (  0.0%)
One electron gradient       ....       0.028 sec  (  1.0%)
RI-J Coulomb gradient       ....       0.165 sec  (  5.8%)
COSX gradient               ....       2.062 sec  ( 72.5%)
XC gradient                 ....       0.538 sec  ( 18.9%)

Maximum memory used throughout the entire SCFGRAD-calculation: 27.3 MB


           ************************************************************
           *        Program running with 6 parallel MPI-processes     *
           *              working on a common directory               *
           ************************************************************

------------------------------------------------------------------------------
                              ORCA PROPERTY CALCULATIONS
------------------------------------------------------------------------------

GBWName                                 ... orca.gbw
Number of atoms                         ...     14
Number of basis functions               ...    106
Max core memory                         ...   4096 MB

Electric properties:
Dipole moment                           ... YES
Quadrupole moment                       ...  NO
Static polarizability (Dipole/Dipole)   ...  NO
Static polarizability (Dipole/Quad.)    ...  NO
Static polarizability (Quad./Quad.)     ...  NO
Static polarizability (Velocity)        ...  NO
Static hyperpolarizability              ...  NO

Atomic electric properties:
Dipole moment                           ...  NO
Quadrupole moment                       ...  NO
Static polarizability                   ...  NO

Choice of electric origin               ... Center of mass
Position of electric origin             ...    -0.410719     0.092309     0.056283

General magnetic properties:
Magnetizability                         ...  NO

EPR properties:
g-Tensor (aka g-matrix)                 ...  NO
Zero-Field splitting spin-orbit         ...  NO
Zero-field splitting spin-spin          ...  NO
Hyperfine couplings                     ...  NO (   0 nuclei)
Quadrupole couplings                    ...  NO (   0 nuclei)
Contact density                         ...  NO (   0 nuclei)

NMR properties:
Chemical shifts                         ...  NO (   0 nuclei)
Spin-rotation constants                 ...  NO (   0 nuclei)
Spin-spin couplings                     ...  NO (   0 nuclei,    0 pairs)

Choice of magnetic origin               ... GIAO
Position of magnetic origin             ...     0.000000     0.000000     0.000000

Properties with geometric perturbations:
SCF Hessian                             ...  NO
IR spectrum                             ...  NO
VCD spectrum                            ...  NO
X-ray spectroscopy properties:
SCF XES/XAS/RIXS spectra                ...  NO

SCF SOC stabilization energy            ...  NO
Diagonal Born-Oppenheimer correction    ...  NO

-------------
DIPOLE MOMENT
-------------

Method             : SCF
Type of density    : Electron Density
Multiplicity       :   1
Irrep              :   0
Energy             :  -165.0205330244893673 Eh
Basis              : AO
                                X                 Y                 Z
Electronic contribution:     -3.678433892      -0.248368480       0.659900837
Nuclear contribution   :      2.795487330      -0.911168564      -0.203554800
                        -----------------------------------------
Total Dipole Moment    :     -0.882946562      -1.159537044       0.456346037
                        -----------------------------------------
Magnitude (a.u.)       :      1.527210691
Magnitude (Debye)      :      3.881861079



--------------------
Rotational spectrum 
--------------------
 
Rotational constants in cm-1:             0.399136             0.072758             0.065003 
Rotational constants in MHz :         11965.800386          2181.223029          1948.730922 

Dipole components along the rotational axes: 
x,y,z [a.u.] :     0.485688    -1.431165     0.219652 
x,y,z [Debye]:     1.234521    -3.637732     0.558312 

 

Dipole moment calculation done in   0.0 sec 

Maximum memory used throughout the entire PROP-calculation: 5.4 MB

--------------------------------
SUGGESTED CITATIONS FOR THIS RUN
--------------------------------

Below you find a list of papers that are relevant to this ORCA run
We neither can nor want to force you to cite these papers, but we appreciate if you do
You receive ORCA, which is the product of decades of hard work by many enthusiastic individuals, for free
The only thing we kindly ask in return is that you cite our papers,
We deeply appreciate it, if you show your appreciation for ORCA by not just citing the generic ORCA reference.

Please note that relegating all ORCA citations to the supporting information does *not* help us.
SI sections are not indexed - citations you put there will not count into any citation statistics
But we need these citations in order to attract the funding resources that allow us to do what we are doing

Therefore, if you are a happy ORCA user, please consider citing a few of the papers listed below in the main body of your paper

In addition to the list printed below, the program has created the file orca.bibtex that contains the list in bibtex format
You can import this file easily into all common literature databanks and citation aid programs


List of essential papers. We consider these as the minimum necessary citations

  1. Neese, F.
     Software update: the ORCA program system, version 6.0
     WIRES Comput. Molec. Sci. 2025 15(1), e70019
     doi.org/10.1002/wcms.7019

List of papers to cite with high priority. The work reported in these papers was absolutely
necessary for this run to complete.
Our perspective: the developers of density functionals and basis sets usually get cited in chemistry papers
Good! But without the algorithms to do something with them, the functionals or basis sets would not do anything.
Hence, in our opinion, the algorithm design and method developments papers are equally worthy of getting cited

  1. Neese, F.
     An improvement of the resolution of the identity approximation for the formation of the Coulomb matrix
     J. Comp. Chem. 2003 24(14), 1740-1747
     doi.org/10.1002/jcc.10318
  2. Neese, F.; Wennmohs, F.; Hansen, A.; Becker, U.
     Efficient, approximate and parallel Hartree-Fock and hybrid DFT calculations. A 'chain-of-spheres' algorithm for the Hartree-Fock exchange
     Chem. Phys. 2009 356(1-3), 98-109
     doi.org/10.1016/j.chemphys.2008.10.036
  3. Grimme, S.; Antony, J.; Ehrlich, S.; Krieg, H.
     A consistent and accurate ab initio parametrization of density functional dispersion correction (DFT-D) for the 94 elements H-Pu
     J. Chem. Phys. 2010 132 , 154104
     doi.org/10.1063/1.3382344
  4. Grimme, S.; Ehrlich, S.; Goerigk, L.
     Effect of the damping function in dispersion corrected density functional theory
     J. Comput. Chem. 2011 32(7), 1456-1465
     doi.org/10.1002/jcc.21759
  5. Helmich-Paris, B.; de Souza, B.; Neese, F.; Izsák, R.
     An improved chain of spheres for exchange algorithm
     J. Chem. Phys. 2021 155(10), 104109
     doi.org/10.1063/5.0058766
  6. Neese, F.
     The SHARK Integral Generation and Digestion System
     J. Comp. Chem. 2022 44(3), 381
     doi.org/10.1002/jcc.26942

List of suggested additional citations. These are papers that are important in the 'surrounding' of 
of this run, or papers that preceded the highly important papers. If you like your results we are grateful for a citation.

  1. Izsak, R.; Neese, F.
     An overlap fitted chain of spheres exchange method
     J. Chem. Phys. 2011 135 , 144105
     doi.org/10.1063/1.3646921
  2. Izsak, R.; Hansen, A.; Neese, F.
     The resolution of identity and chain of spheres approximations for the LPNO-CCSD singles Fock term
     Molec. Phys. 2012 110 , 2413-2417
     doi.org/10.1080/00268976.2012.687466
  3. Neese, F.
     The ORCA program system
     WIRES Comput. Molec. Sci. 2012 2(1), 73-78
     doi.org/10.1002/wcms.81
  4. Izsak, R.; Neese, F.; Klopper, W.
     Robust fitting techniques in the chain of spheres approximation to the Fock exchange: The role of the complementary space
     J. Chem. Phys. 2013 139 , 
     doi.org/10.1063/1.4819264
  5. Neese, F.
     Software update: the ORCA program system, version 4.0
     WIRES Comput. Molec. Sci. 2018 8(1), 1-6
     doi.org/10.1002/wcms.1327
  6. Neese, F.; Wennmohs, F.; Becker, U.; Riplinger, C.
     The ORCA quantum chemistry program package
     J. Chem. Phys. 2020 152(22), 224108
     doi.org/10.1063/5.0004608
  7. Neese, F.
     Software update: The ORCA program system—Version 5.0
     WIRES Comput. Molec. Sci. 2022 12(1), e1606
     doi.org/10.1002/wcms.1606

List of optional additional citations

  1. Neese, F.
     Approximate second-order SCF convergence for spin unrestricted wavefunctions
     Chem. Phys. Lett. 2000 325(1-3), 93-98
     doi.org/10.1016/s0009-2614(00)00662-x

Timings for individual modules:

Sum of individual times          ...       11.489 sec (=   0.191 min)
Startup calculation              ...        1.189 sec (=   0.020 min)  10.3 %
SCF iterations                   ...        6.529 sec (=   0.109 min)  56.8 %
Property calculations            ...        0.455 sec (=   0.008 min)   4.0 %
SCF Gradient evaluation          ...        3.317 sec (=   0.055 min)  28.9 %
                             ****ORCA TERMINATED NORMALLY****
TOTAL RUN TIME: 0 days 0 hours 0 minutes 12 seconds 117 msec
