
                                 *****************
                                 * O   R   C   A *
                                 *****************

                                            #,                                       
                                            ###                                      
                                            ####                                     
                                            #####                                    
                                            ######                                   
                                           ########,                                 
                                     ,,################,,,,,                         
                               ,,#################################,,                 
                          ,,##########################################,,             
                       ,#########################################, ''#####,          
                    ,#############################################,,   '####,        
                  ,##################################################,,,,####,       
                ,###########''''           ''''###############################       
              ,#####''   ,,,,##########,,,,          '''####'''          '####       
            ,##' ,,,,###########################,,,                        '##       
           ' ,,###''''                  '''############,,,                           
         ,,##''                                '''############,,,,        ,,,,,,###''
      ,#''                                            '''#######################'''  
     '                                                          ''''####''''         
             ,#######,   #######,   ,#######,      ##                                
            ,#'     '#,  ##    ##  ,#'     '#,    #''#        ,####,    ,#,          
            ##       ##  ##   ,#'  ##            #'  '#       #'       ,# #          
            ##       ##  #######   ##           ,######,      #####,      #          
            '#,     ,#'  ##    ##  '#,     ,#' ,#      #,     #,   #      #          
             '#######'   ##     ##  '#######'  #'      '#     '####' #    #          



                #########################################################
                #                        -***-                          #
                #          Department of theory and spectroscopy        #
                #                                                       #
                #                      Frank Neese                      #
                #                                                       #
                #     Directorship, Architecture, Infrastructure        #
                #                    SHARK, DRIVERS                     #
                #        Core code/Algorithms in most modules           #
                #                                                       #
                #        Max Planck Institute fuer Kohlenforschung      #
                #                Kaiser Wilhelm Platz 1                 #
                #                 D-45470 Muelheim/Ruhr                 #
                #                      Germany                          #
                #                                                       #
                #                  All rights reserved                  #
                #                        -***-                          #
                #########################################################


                         Program Version 6.1.0  -  RELEASE   -
                                (GIT: $679e74b$)
                          ($2025-06-10 18:02:51 +0200$)


 With contributions from (in alphabetic order):
[Max-Planck-Institut fuer Kohlenforschung]                               
  Daniel Aravena         : Magnetic Suceptibility                        
  Michael Atanasov       : Ab Initio Ligand Field Theory (pilot matlab implementation)
  Alexander A. Auer      : GIAO ZORA, VPT2 properties, NMR spectrum      
  Ute Becker             : All parallelization in ORCA, NUMFREQ, NUMCALC 
  Giovanni Bistoni       : ED, misc. LED, open-shell LED, HFLD           
  Dmytro Bykov           : pre 5.0 version of the SCF Hessian            
  Marcos Casanova-Páez   : Triplet and SCS-CIS(D). UHF-(DLPNO)-IP/EA/STEOM-CCSD. UHF-CVS-IP/STEOM-CCSD   
  Vijay G. Chilkuri      : MRCI spin determinant printing, contributions to CSF-ICE 
  Pauline Colinet        : FMM embedding                                 
  Dipayan Datta          : RHF DLPNO-CCSD density                        
  Achintya Kumar Dutta   : EOM-CC, STEOM-CC                              
  Nicolas Foglia         : Exact transition moments, OPA infrastructure, MCD improvements    
  Dmitry Ganyushin       : Spin-Orbit,Spin-Spin,Magnetic field MRCI      
  Miquel Garcia-Rates    : C-PCM and meta-GGA Hessian, CCSD/C-PCM, Gaussian charge scheme 
  Tiago L. C. Gouveia    : GS-ROHF, GS-ROCIS                             
  Yang Guo               : DLPNO-NEVPT2, F12-NEVPT2, CIM, IAO-localization        
  Andreas Hansen         : Spin unrestricted coupled pair/coupled cluster methods 
  Ingolf Harden          : AUTO-CI MPn and infrastructure                
  Benjamin Helmich-Paris : MC-RPA, TRAH-(SCF,CASSCF), AVAS, COSX integrals, SCF dyn. polar., MC-PDFT, srDFT 
  Lee Huntington         : MR-EOM, pCC                                   
  Robert Izsak           : Overlap fitted RIJCOSX, COSX-SCS-MP3, EOM     
  Riya Kayal             : Wick's Theorem for AUTO-CI, AUTO-CI UHF-CCSDT 
  Emily Kempfer          : AUTO-CI RHF CISDT and CCSDT, approximate NEVPT4
  Christian Kollmar      : KDIIS, OOCD, Brueckner-CCSD(T), CCSD density, CASPT2, CASPT2-K, improved NEVPT2 
  Axel Koslowski         : Symmetry handling                             
  Simone Kossmann        : meta-GGA functionals, TD-DFT gradient, OOMP2, (MP2 Hessian; deprecated post 5.0) 
  Lucas Lang             : DCDCAS, Hyperfine gauge corrections, ICE-SOC+SSC
  Marvin Lechner         : AUTO-CI (C++ implementation), FIC-MRCC        
  Spencer Leger          : CASSCF response                               
  Dagmar Lenk            : GEPOL surface, SMD, ORCA-2-JSON               
  Dimitrios Liakos       : Extrapolation schemes; Compound Job, Property file
  Dimitrios Manganas     : Further ROCIS development; embedding schemes. LFT, Crystal Embedding 
  Dimitrios Pantazis     : SARC Basis sets                               
  Anastasios Papadopoulos: AUTO-CI, single reference methods and gradients 
  Taras Petrenko         : pre 6.0 DFT Hessian and TD-DFT gradient,  ECA, NRVS 
  Petra Pikulova         : Analytic Raman intensities                    
  Peter Pinski           : DLPNO-MP2, DLPNO-MP2 Gradient                 
  Shashank Vittal Rao    : ES-AILFT, MagRelax                            
  Christoph Reimann      : Effective Core Potentials                     
  Marius Retegan         : Local ZFS, SOC                                
  Christoph Riplinger    : Optimizer, TS searches, QM/MM, DLPNO-CCSD(T), (RO)-DLPNO pert. Triples 
  Michael Roemelt        : Original ROCIS implementation, recursive CI coupling coefficients
  Masaaki Saitow         : Open-shell DLPNO-CCSD energy and density      
  Barbara Sandhoefer     : DKH picture change effects                    
  Yorick L. A. Schmerwitz: GMF and freeze-and-release deltaSCF, NEB S-IDPP initial path                    
  Kantharuban Sivalingam : CASSCF convergence/infrastructure, NEVPT2, NEVPT3, NEVPT4(SD), FIC-MRCI and CEPA variants
  Bernardo de Souza      : ESD, SOC TD-DFT                               
  Georgi L. Stoychev     : AutoAux, RI-MP2 NMR, DLPNO-MP2 response, X2C  
  Van Anh Tran           : RI-MP2 g-tensors                              
  Willem Van den Heuvel  : Paramagnetic NMR                              
  Zikuan Wang            : NOTCH, Electric field optimization            
  Frank Wennmohs         : Technical directorship and infrastructure     
  Hang Xu                : AUTO-CI-Response properties                   
                                                                         
[FACCTs GmbH]                                                            
  Markus Bursch, Nicolas Foglia, Miquel Garcia-Rates, Ingolf Harden, Hagen Neugebauer, Anastasios Papadopoulos, 
  Christoph Riplinger, Bernardo de Souza, Georgi L. Stoychev                                                    
                                                                 
  APM, various basis sets, CI-OPT, improved COSX, DLPNO-Multilevel,           
  DOCKER, DRACO, updates on ESD, Fragmentator, GOAT, IRC, LR-CPCM, L-BFGS, MBIS, meta-GGA TD-DFT gradient, ML-optimized integration grids, 
  MM, NACMEs, nearIR, NEB, NEB-TS, NL-DFT gradient (VV10), 2- and 3-layer-ONIOM, interface openCOSMO-RS, QMMM,   
  Crystal-QMMM, RESP, rigid body optimization, SF, symmetry and pop. for TD-DFT, various functionals, SOLVATOR                                   
                                                                         
[Other institutions]                                                     
  V. Asgeirsson          : NEB                                           
  Christoph Bannwarth    : sTDA-DFT, sTD-DFT, PBEh-3c, B97-3c, D3        
  Giovanni Bistoni       : ETS/NOCV, ADLD/ADEX, COVALED                  
  Martin Brehm           : Molecular dynamics                            
  Ronald Cardenas        : ETS/NOCV                                      
  Martina Colucci        : COVALED                                       
  Sebastian Ehlert       : rSCAN, r2SCAN, r2SCAN-3c, D4, dhf basis sets  
  Marvin Friede          : D4 for Fr, Ra, Ac-Lr                          
  Lars Goerigk           : TD-DFT with DH, B97 family of functionals     
  Stefan Grimme          : VdW corrections, initial TS optimization, DFT functionals, gCP, sTDA/sTD-DF 
  Waldemar Hujo          : DFT-NL                                        
  H. Jonsson             : NEB                                           
  Holger Kruse           : gCP                                           
  Marcel Mueller         : wB97X-3c, vDZP basis set                      
  Hagen Neugebauer       : wr2SCAN, Native XTB                           
  Gianluca Regni         : ADLD/ADEX                                     
  Tobias Risthaus        : pre 6.0 range-separated hybrid DFT and stability analysis
  Lukas Wittmann         : regularized MP2, r2SCAN double-hybrids, wr2SCAN        
                                                                         
We gratefully acknowledge several colleagues who have allowed us to      
interface, adapt or use parts of their codes:                            
  Ed Valeev, F. Pavosevic, A. Kumar             : LibInt (2-el integral package), F12 methods 
  Garnet Chan, S. Sharma, J. Yang, R. Olivares  : DMRG                   
  Ulf Ekstrom                                   : XCFun DFT Library      
  Mihaly Kallay                                 : mrcc  (arbitrary order and MRCC methods)
  Frank Weinhold                                : gennbo (NPA and NBO analysis)           
  Simon Mueller                                 : openCOSMO-RS                            
  Christopher J. Cramer and Donald G. Truhlar   : smd solvation model                     
  S Lehtola, MJT Oliveira, MAL Marques          : LibXC Library                           
  Liviu Ungur et al                             : ANISO software                          


 Your calculation uses the libint2 library for the computation of 2-el integrals
 For citations please refer to: http://libint.valeyev.net

 Your ORCA version has been built with support for libXC version: 7.0.0
 For citations please refer to: https://libxc.gitlab.io

 This ORCA versions uses:
   CBLAS   interface :  Fast vector & matrix operations
   LAPACKE interface :  Fast linear algebra routines
   SCALAPACK package :  Parallel linear algebra routines
   Shared memory     :  Shared parallel matrices
   BLAS/LAPACK       :  OpenBLAS 0.3.29  USE64BITINT DYNAMIC_ARCH NO_AFFINITY Zen SINGLE_THREADED
        Core in use  :  Zen
   Copyright (c) 2011-2014, The OpenBLAS Project


  ***********************************
  * Starting time: Wed Sep 10 13:35:36 2025
  * Host name:     wyk-Server
  * Process ID:    2292603
  * Working dir.:  /home/wyk/Documents/code/openQDC/MGMR/singlepointcalc/57/sp
  ***********************************

Your calculation utilizes the atom-pairwise dispersion correction
with the Becke-Johnson damping scheme (D3BJ)


Warning: RI is on but no J-basis has been assigned. Assigning Def2/J (nothing to worry about!)
================================================================================

----- Orbital basis set information -----
Your calculation utilizes the basis: def2-SVP
   F. Weigend and R. Ahlrichs, Phys. Chem. Chem. Phys. 7, 3297 (2005).

----- AuxJ basis set information -----
Your calculation utilizes the auxiliary basis: def2/J
   H-Rn: F. Weigend, Phys. Chem. Chem. Phys. 8, 1057 (2006).
   Fr-Lr: K. Eichkorn, F. Weigend, O. Treutler, R. Ahlrichs; Theor. Chem. Acc. 97, 119 (1997).

================================================================================
                                        WARNINGS
                       Please study these warnings very carefully!
================================================================================


================================================================================
                                       INPUT FILE
================================================================================
NAME = orca.inp
|  1> ! B3LYP def2-SVP d3 EnGrad 
|  2> %pal nprocs 6 end 
|  3> *xyz 0 1 
|  4> C   -1.83553548860409 0.04596989146944 -0.35441754661091
|  5> C   -0.58542661152507 0.61856304847264 0.05503275917095
|  6> N   0.37773066208769 -0.16435195450784 -0.37443952166171
|  7> C   1.70160634063573 -0.26336999360286 0.2116859229007
|  8> H   -0.37346675226363 1.54800639692495 0.6105552486181
|  9> H   -2.69411982148379 0.68735297473544 -0.59425834278327
| 10> H   -0.64610970231106 -0.76587432212642 -0.93315368673772
| 11> H   -2.11661641591592 -0.8179892425341 0.26691597289678
| 12> H   1.75853763457753 -1.11484025270207 0.91258546487444
| 13> H   2.45549574169761 -0.42523089285081 -0.57485565436939
| 14> H   1.957904413105 0.65176434672162 0.77434938370205
| 15> *
| 16> 
| 17>                          ****END OF INPUT****
================================================================================

                     *******************************
                     * Energy+Gradient Calculation *
                     *******************************

---------------------------------
CARTESIAN COORDINATES (ANGSTROEM)
---------------------------------
  C     -1.835535    0.045970   -0.354418
  C     -0.585427    0.618563    0.055033
  N      0.377731   -0.164352   -0.374440
  C      1.701606   -0.263370    0.211686
  H     -0.373467    1.548006    0.610555
  H     -2.694120    0.687353   -0.594258
  H     -0.646110   -0.765874   -0.933154
  H     -2.116616   -0.817989    0.266916
  H      1.758538   -1.114840    0.912585
  H      2.455496   -0.425231   -0.574856
  H      1.957904    0.651764    0.774349

----------------------------
CARTESIAN COORDINATES (A.U.)
----------------------------
  NO LB      ZA    FRAG     MASS         X           Y           Z
   0 C     6.0000    0    12.011   -3.468659    0.086871   -0.669752
   1 C     6.0000    0    12.011   -1.106296    1.168915    0.103997
   2 N     7.0000    0    14.007    0.713808   -0.310580   -0.707588
   3 C     6.0000    0    12.011    3.215570   -0.497697    0.400028
   4 H     1.0000    0     1.008   -0.705750    2.925308    1.153782
   5 H     1.0000    0     1.008   -5.091149    1.298909   -1.122986
   6 H     1.0000    0     1.008   -1.220970   -1.447293   -1.763405
   7 H     1.0000    0     1.008   -3.999825   -1.545776    0.504398
   8 H     1.0000    0     1.008    3.323155   -2.106743    1.724537
   9 H     1.0000    0     1.008    4.640214   -0.803570   -1.086320
  10 H     1.0000    0     1.008    3.699903    1.231656    1.463308

--------------------------------
INTERNAL COORDINATES (ANGSTROEM)
--------------------------------
 C      0   0   0     0.000000000000     0.00000000     0.00000000
 C      1   0   0     1.434672325273     0.00000000     0.00000000
 N      2   1   0     1.313420829593   107.92400768     0.00000000
 C      3   2   1     1.451204472526   125.28075966   204.78184404
 H      2   1   3     1.103357220578   130.33725838   178.81079670
 H      1   2   3     1.098208961753   120.69488748   212.11983409
 H      3   2   1     1.312341330895    80.81192302     5.39443852
 H      1   2   3     1.100675799403   112.00504698    76.13802711
 H      4   3   2     1.104311071347   110.85386577    96.34192034
 H      4   3   2     1.101451693227   110.24337170   215.54741587
 H      4   3   2     1.104422805321   111.15752094   336.62147458

---------------------------
INTERNAL COORDINATES (A.U.)
---------------------------
 C      0   0   0     0.000000000000     0.00000000     0.00000000
 C      1   0   0     2.711137786681     0.00000000     0.00000000
 N      2   1   0     2.482005666518   107.92400768     0.00000000
 C      3   2   1     2.742379017397   125.28075966   204.78184404
 H      2   1   3     2.085042974777   130.33725838   178.81079670
 H      1   2   3     2.075314175531   120.69488748   212.11983409
 H      3   2   1     2.479965709617    80.81192302     5.39443852
 H      1   2   3     2.079975823106   112.00504698    76.13802711
 H      4   3   2     2.086845491503   110.85386577    96.34192034
 H      4   3   2     2.081442049943   110.24337170   215.54741587
 H      4   3   2     2.087056638114   111.15752094   336.62147458

---------------------
BASIS SET INFORMATION
---------------------
There are 3 groups of distinct atoms

 Group   1 Type C   : 7s4p1d contracted to 3s2p1d pattern {511/31/1}
 Group   2 Type N   : 7s4p1d contracted to 3s2p1d pattern {511/31/1}
 Group   3 Type H   : 4s1p contracted to 2s1p pattern {31/1}

Atom   0C    basis set group =>   1
Atom   1C    basis set group =>   1
Atom   2N    basis set group =>   2
Atom   3C    basis set group =>   1
Atom   4H    basis set group =>   3
Atom   5H    basis set group =>   3
Atom   6H    basis set group =>   3
Atom   7H    basis set group =>   3
Atom   8H    basis set group =>   3
Atom   9H    basis set group =>   3
Atom  10H    basis set group =>   3
---------------------------------
AUXILIARY/J BASIS SET INFORMATION
---------------------------------
There are 3 groups of distinct atoms

 Group   1 Type C   : 12s5p4d2f1g contracted to 6s4p3d1f1g pattern {711111/2111/211/2/1}
 Group   2 Type N   : 12s5p4d2f1g contracted to 6s4p3d1f1g pattern {711111/2111/211/2/1}
 Group   3 Type H   : 5s2p1d contracted to 3s1p1d pattern {311/2/1}

Atom   0C    basis set group =>   1
Atom   1C    basis set group =>   1
Atom   2N    basis set group =>   2
Atom   3C    basis set group =>   1
Atom   4H    basis set group =>   3
Atom   5H    basis set group =>   3
Atom   6H    basis set group =>   3
Atom   7H    basis set group =>   3
Atom   8H    basis set group =>   3
Atom   9H    basis set group =>   3
Atom  10H    basis set group =>   3


           ************************************************************
           *        Program running with 6 parallel MPI-processes     *
           *              working on a common directory               *
           ************************************************************
------------------------------------------------------------------------------
                             ORCA STARTUP CALCULATIONS
                           -- RI-GTO INTEGRALS CHOSEN --
------------------------------------------------------------------------------
------------------------------------------------------------------------------
                   ___                                                        
                  /   \      - P O W E R E D   B Y -                         
                 /     \                                                     
                 |  |  |   _    _      __       _____    __    __             
                 |  |  |  | |  | |    /  \     |  _  \  |  |  /  |          
                  \  \/   | |  | |   /    \    | | | |  |  | /  /          
                 / \  \   | |__| |  /  /\  \   | |_| |  |  |/  /          
                |  |  |   |  __  | /  /__\  \  |    /   |      \           
                |  |  |   | |  | | |   __   |  |    \   |  |\   \          
                \     /   | |  | | |  |  |  |  | |\  \  |  | \   \       
                 \___/    |_|  |_| |__|  |__|  |_| \__\ |__|  \__/        
                                                                              
                      - O R C A' S   B I G   F R I E N D -                    
                                      &                                       
                       - I N T E G R A L  F E E D E R -                       
                                                                              
 v1 FN, 2020, v2 2021, v3 2022-2024                                           
------------------------------------------------------------------------------


----------------------
SHARK INTEGRAL PACKAGE
----------------------

Number of atoms                             ...     11
Number of basis functions                   ...     91
Number of shells                            ...     45
Maximum angular momentum                    ...      2
Integral batch strategy                     ... SHARK/LIBINT Hybrid
RI-J (if used) integral strategy            ... SPLIT-RIJ (Revised 2003 algorithm where possible)
Printlevel                                  ...      1
Contraction scheme used                     ... SEGMENTED contraction
Prescreening option                         ... SCHWARTZ
   Thresh                                   ... 2.500e-11
   Tcut                                     ... 2.500e-12
   Tpresel                                  ... 2.500e-12 
Coulomb Range Separation                    ... NOT USED
Exchange Range Separation                   ... NOT USED
Multipole approximations                    ... NOT USED
Finite Nucleus Model                        ... NOT USED
CABS basis                                  ... NOT available
Auxiliary Coulomb fitting basis             ... AVAILABLE
   # of basis functions in Aux-J            ...    273
   # of shells in Aux-J                     ...     95
   Maximum angular momentum in Aux-J        ...      4
Auxiliary J/K fitting basis                 ... NOT available
Auxiliary Correlation fitting basis         ... NOT available
Auxiliary 'external' fitting basis          ... NOT available

Checking pre-screening integrals            ... done (  0.0 sec) Dimension = 45
   => SHARK Basis and OBASIS are compatible. Storing Pre-screening
Shell pair information
Shell pair cut-off parameter TPreSel        ...   2.5e-12
Total number of shell pairs                 ...      1035
Shell pairs after pre-screening             ...      1017
Total number of primitive shell pairs       ...      3559
Primitive shell pairs kept                  ...      2863
          la=0 lb=0:    346 shell pairs
          la=1 lb=0:    383 shell pairs
          la=1 lb=1:    116 shell pairs
          la=2 lb=0:    102 shell pairs
          la=2 lb=1:     60 shell pairs
          la=2 lb=2:     10 shell pairs

Checking whether 4 symmetric matrices of dimension 91 fit in memory
:Max Core in MB      =   4096.00
 MB in use           =      4.57
 MB left             =   4091.43
 MB needed           =      0.13
 Data fit in memory  = YES
Calculating RI/J V-Matrix + Cholesky decomp.... done (  0.0 sec)
Calculating Nuclear repulsion               ... done (  0.0 sec) ENN=    119.783539094021 Eh

Diagonalization of the overlap matrix:
Smallest eigenvalue                        ... 3.239e-03
Time for diagonalization                   ...    0.001 sec
Threshold for overlap eigenvalues          ... 1.000e-07
Number of eigenvalues below threshold      ... 0
Time for construction of square roots      ...    0.001 sec
Total time needed                          ...    0.003 sec

-------------------
DFT GRID GENERATION
-------------------

General Integration Accuracy     IntAcc      ... 4.388
Radial Grid Type                 RadialGrid  ... OptM3 with GC (2021)
Angular Grid (max. ang.)         AngularGrid ... 4 (Lebedev-302)
Angular grid pruning method      GridPruning ... 4 (adaptive)
Weight generation scheme         WeightScheme... mBecke (2022)
Basis function cutoff            BFCut       ... 1.0000e-11
Integration weight cutoff        WCut        ... 1.0000e-14
Partially contracted basis set               ... off
Rotationally invariant grid construction     ... off
Angular grids for H and He will be reduced by one unit

Total number of grid points                  ...    46984
Total number of batches                      ...      739
Average number of points per batch           ...       63
Average number of grid points per atom       ...     4271

--------------------
COSX GRID GENERATION
--------------------

GRIDX 1
-------
General Integration Accuracy     IntAcc      ... 3.816
Radial Grid Type                 RadialGrid  ... OptM3 with GC (2021)
Angular Grid (max. ang.)         AngularGrid ... 1 (Lebedev-50)
Angular grid pruning method      GridPruning ... 4 (adaptive)
Weight generation scheme         WeightScheme... mBecke (2022)
Basis function cutoff            BFCut       ... 1.0000e-11
Integration weight cutoff        WCut        ... 1.0000e-14
Partially contracted basis set               ... on
Rotationally invariant grid construction     ... off
Angular grids for H and He will be reduced by one unit

Total number of grid points                  ...     6068
Total number of batches                      ...       55
Average number of points per batch           ...      110
Average number of grid points per atom       ...      552
UseSFitting                                  ... on

GRIDX 2
-------
General Integration Accuracy     IntAcc      ... 4.020
Radial Grid Type                 RadialGrid  ... OptM3 with GC (2021)
Angular Grid (max. ang.)         AngularGrid ... 2 (Lebedev-110)
Angular grid pruning method      GridPruning ... 4 (adaptive)
Weight generation scheme         WeightScheme... mBecke (2022)
Basis function cutoff            BFCut       ... 1.0000e-11
Integration weight cutoff        WCut        ... 1.0000e-14
Partially contracted basis set               ... on
Rotationally invariant grid construction     ... off
Angular grids for H and He will be reduced by one unit

Total number of grid points                  ...    12800
Total number of batches                      ...      108
Average number of points per batch           ...      118
Average number of grid points per atom       ...     1164
UseSFitting                                  ... on

GRIDX 3
-------
General Integration Accuracy     IntAcc      ... 4.338
Radial Grid Type                 RadialGrid  ... OptM3 with GC (2021)
Angular Grid (max. ang.)         AngularGrid ... 3 (Lebedev-194)
Angular grid pruning method      GridPruning ... 4 (adaptive)
Weight generation scheme         WeightScheme... mBecke (2022)
Basis function cutoff            BFCut       ... 1.0000e-11
Integration weight cutoff        WCut        ... 1.0000e-14
Partially contracted basis set               ... on
Rotationally invariant grid construction     ... off
Angular grids for H and He will be reduced by one unit

Total number of grid points                  ...    28071
Total number of batches                      ...      224
Average number of points per batch           ...      125
Average number of grid points per atom       ...     2552
UseSFitting                                  ... on
Grids setup in   0.5 sec
Initializing property integral containers    ... done (  0.0 sec)

SHARK setup successfully completed in   0.6 seconds

Maximum memory used throughout the entire STARTUP-calculation: 13.4 MB


           ************************************************************
           *        Program running with 6 parallel MPI-processes     *
           *              working on a common directory               *
           ************************************************************
-------------------------------------------------------------------------------
                                 ORCA GUESS
                   Start orbitals & Density for SCF / CASSCF
-------------------------------------------------------------------------------

------------
SCF SETTINGS
------------
Hamiltonian:
 Density Functional     Method          .... DFT(GTOs)
 Exchange Functional    Exchange        .... B88
   X-Alpha parameter    XAlpha          ....  0.666667
   Becke's b parameter  XBeta           ....  0.004200
 Correlation Functional Correlation     .... LYP
 LDA part of GGA corr.  LDAOpt          .... VWN-5
 Gradients option       PostSCFGGA      .... off
 Hybrid DFT is turned on
   Fraction HF Exchange ScalHFX         ....  0.200000
   Scaling of DF-GGA-X  ScalDFX         ....  0.720000
   Scaling of DF-GGA-C  ScalDFC         ....  0.810000
   Scaling of DF-LDA-C  ScalLDAC        ....  1.000000
   Perturbative correction              ....  0.000000
   NL short-range parameter             ....  4.800000
 RI-approximation to the Coulomb term is turned on
   Number of AuxJ basis functions       .... 273
   RIJ-COSX (HFX calculated with COS-X)).... on


General Settings:
 Integral files         IntName         .... orca
 Hartree-Fock type      HFTyp           .... RHF
 Total Charge           Charge          ....    0
 Multiplicity           Mult            ....    1
 Number of Electrons    NEL             ....   32
 Basis Dimension        Dim             ....   91
 Nuclear Repulsion      ENuc            ....    119.7835390940 Eh

Convergence Acceleration:
 AO-DIIS                CNVDIIS         .... on
   Start iteration      DIISMaxIt       ....    12
   Startup error        DIISStart       ....  0.200000
   # of expansion vecs  DIISMaxEq       ....     5
   Bias factor          DIISBfac        ....   1.050
   Max. coefficient     DIISMaxC        ....  10.000
 MO-DIIS                CNVKDIIS        .... off
 Trust-Rad. Augm. Hess. CNVTRAH         .... auto
   Auto Start mean grad. ratio tolernc. ....  1.125000
   Auto Start start iteration           ....    50
   Auto Start num. interpolation iter.  ....    10
   Max. Number of Micro iterations      ....    24
   Max. Number of Macro iterations      .... Maxiter - #DIIS iter
   Number of Davidson start vectors     ....     2
   Converg. threshold    (grad. norm)   ....   1.000e-05
   Grad. Scal. Fac. for Micro threshold ....   0.100
   Minimum threshold for Micro iter.    ....   1.000e-02
   NR start threshold (gradient norm)   ....   1.000e-04
   Initial trust radius                 ....   0.400
   Minimum AH scaling param. (alpha)    ....   1.000
   Maximum AH scaling param. (alpha)    .... 1000.000
   Quad. conv. algorithm                .... NR
   White noise on init. David. guess    .... on
   Maximum white noise                  ....   0.010
   Pseudo random numbers                .... off
   Inactive MOs                         .... canonical
   Orbital update algorithm             .... Taylor
   Preconditioner                       .... Diag
   Full preconditioner red. dimension   ....   250
 SOSCF                 CNVSOSCF           .... on
   Start iteration     SOSCFMaxIt         ....   150
   Startup grad/error  SOSCFStart         ....  0.003300
   Hessian update      SOSCFHessUp        .... L-BFGS
   Autom. constraints  SOSCFAutoConstrain .... off
 Level Shifting         CNVShift        .... on
   Level shift para.    LevelShift      ....    0.2500
   Turn off err/grad.   ShiftErr        ....    0.0010
 Zerner damping         CNVZerner       .... off
 Static damping         CNVDamp         .... on
   Fraction old density DampFac         ....    0.7000
   Max. Damping (<1)    DampMax         ....    0.9800
   Min. Damping (>=0)   DampMin         ....    0.0000
   Turn off err/grad.   DampErr         ....    0.1000

SCF Procedure:
 Maximum # iterations   MaxIter         ....   125
 SCF integral mode      SCFMode         .... Direct
   Integral package                     .... SHARK and LIBINT hybrid scheme
 Reset frequency        DirectResetFreq ....    20
 Integral Threshold     Thresh          ....  2.500e-11 Eh
 Primitive CutOff       TCut            ....  2.500e-12 Eh

Convergence Tolerance:
 Convergence Check Mode ConvCheckMode   .... Total+1el-Energy
 Convergence forced     ConvForced      .... 0
 Energy Change          TolE            ....  1.000e-08 Eh
 1-El. energy change                    ....  1.000e-05 Eh
 Orbital Gradient       TolG            ....  1.000e-05
 Orbital Rotation angle TolX            ....  1.000e-05
 DIIS Error             TolErr          ....  5.000e-07

------------------------------
INITIAL GUESS: MODEL POTENTIAL
------------------------------
Loading Hartree-Fock densities                     ... done
Calculating cut-offs                               ... done
Initializing the effective Hamiltonian             ... done
Setting up the integral package (SHARK)            ... done
Starting the Coulomb interaction                   ... done (   0.0 sec)
Making the grid                                    ... done (   0.1 sec)
Mapping shells                                     ... done
Starting the XC term evaluation                    ... done (   0.0 sec)
  promolecular density results
     # of electrons  =     31.995962162
     EX              =    -24.030799537
     EC              =     -1.028938372
     EX+EC           =    -25.059737909
Transforming the Hamiltonian                       ... done (   0.0 sec)
Diagonalizing the Hamiltonian                      ... done (   0.0 sec)
Back transforming the eigenvectors                 ... done (   0.0 sec)
Now organizing SCF variables                       ... done
                      ------------------
                      INITIAL GUESS DONE (   0.1 sec)
                      ------------------
             **** ENERGY FILE WAS UPDATED (orca.en.tmp) ****
Finished Guess after   0.2 sec
Maximum memory used throughout the entire GUESS-calculation: 6.9 MB


           ************************************************************
           *        Program running with 6 parallel MPI-processes     *
           *              working on a common directory               *
           ************************************************************

-------------------------------------------------------------------------------------------
                                      ORCA LEAN-SCF
                              memory conserving SCF solver
-------------------------------------------------------------------------------------------

----------------------------------------D-I-I-S--------------------------------------------
Iteration    Energy (Eh)           Delta-E    RMSDP     MaxDP     DIISErr   Damp  Time(sec)
-------------------------------------------------------------------------------------------
               ***  Starting incremental Fock matrix formation  ***
    1    -172.7790902334207601     0.00e+00  1.14e-02  9.23e-02  1.96e-01  0.700   0.4
    2    -172.8429693099130020    -6.39e-02  8.26e-03  5.70e-02  1.02e-01  0.700   0.2
                               ***Turning on AO-DIIS***
    3    -172.8691003227638419    -2.61e-02  3.31e-03  2.09e-02  3.70e-02  0.700   0.2
    4    -172.8839490225703628    -1.48e-02  5.28e-03  2.88e-02  1.66e-02  0.000   0.2
    5    -172.9159473572553622    -3.20e-02  1.11e-03  6.41e-03  6.55e-03  0.000   0.2
                              *** Initializing SOSCF ***
---------------------------------------S-O-S-C-F--------------------------------------
Iteration    Energy (Eh)           Delta-E    RMSDP     MaxDP     MaxGrad    Time(sec)
--------------------------------------------------------------------------------------
    6    -172.9161921308845820    -2.45e-04  4.55e-04  2.99e-03  2.39e-03     0.2
               *** Restarting incremental Fock matrix formation ***
    7    -172.9162616902961815    -6.96e-05  3.33e-04  1.46e-03  2.24e-04     0.4
    8    -172.9162627909138052    -1.10e-06  9.16e-05  5.86e-04  2.53e-04     0.3
    9    -172.9162646195986497    -1.83e-06  4.53e-05  2.48e-04  4.54e-05     0.3
   10    -172.9162645473146824     7.23e-08  2.14e-05  1.56e-04  7.80e-05     0.3
   11    -172.9162646705195527    -1.23e-07  1.18e-05  8.63e-05  1.95e-05     0.3
   12    -172.9162646659853237     4.53e-09  6.40e-06  4.13e-05  2.38e-05     0.3
                 **** Energy Check signals convergence ****

               *****************************************************
               *                     SUCCESS                       *
               *           SCF CONVERGED AFTER  12 CYCLES          *
               *****************************************************

Recomputing exchange energy using gridx3       ... done (    0.467 sec)
Old exchange energy                            :     -4.892054108 Eh
New exchange energy                            :     -4.892061164 Eh
Exchange energy change after final integration :     -0.000007056 Eh
Total energy after final integration           :   -172.916271731 Eh
             **** ENERGY FILE WAS UPDATED (orca.en.tmp) ****

----------------
TOTAL SCF ENERGY
----------------

Total Energy       :       -172.91627173072524 Eh           -4705.29097 eV

Components:
Nuclear Repulsion  :        119.78353909402117 Eh            3259.47581 eV
Electronic Energy  :       -292.69980376888856 Eh           -7964.76658 eV
One Electron Energy:       -468.93025870267627 Eh          -12760.24106 eV
Two Electron Energy:        176.23045493378771 Eh            4795.47448 eV

Virial components:
Potential Energy   :       -343.97041498616829 Eh           -9359.91084 eV
Kinetic Energy     :        171.05414325544302 Eh            4654.61987 eV
Virial Ratio       :          2.01088619334114

DFT components:
N(Alpha)           :       16.000009324409 electrons
N(Beta)            :       16.000009324409 electrons
N(Total)           :       32.000018648817 electrons
E(X)               :      -19.439746703313 Eh       
E(C)               :       -1.223295401722 Eh       
E(XC)              :      -20.663042105036 Eh       

---------------
SCF CONVERGENCE
---------------

  Last Energy change         ...   -4.5342e-09  Tolerance :   1.0000e-08
  Last MAX-Density change    ...    4.1287e-05  Tolerance :   1.0000e-07
  Last RMS-Density change    ...    6.3979e-06  Tolerance :   5.0000e-09
  Last DIIS Error            ...    2.3950e-03  Tolerance :   5.0000e-07
  Last Orbital Gradient      ...    2.3816e-05  Tolerance :   1.0000e-05
  Last Orbital Rotation      ...    3.0873e-05  Tolerance :   1.0000e-05


----------------
ORBITAL ENERGIES
----------------

  NO   OCC          E(Eh)            E(eV) 
   0   2.0000     -14.339194      -390.1893 
   1   2.0000     -10.235849      -278.5316 
   2   2.0000     -10.222827      -278.1773 
   3   2.0000     -10.142960      -276.0040 
   4   2.0000      -0.930161       -25.3110 
   5   2.0000      -0.748073       -20.3561 
   6   2.0000      -0.639855       -17.4113 
   7   2.0000      -0.565557       -15.3896 
   8   2.0000      -0.503285       -13.6951 
   9   2.0000      -0.449443       -12.2300 
  10   2.0000      -0.442925       -12.0526 
  11   2.0000      -0.391625       -10.6567 
  12   2.0000      -0.383761       -10.4427 
  13   2.0000      -0.342577        -9.3220 
  14   2.0000      -0.287870        -7.8333 
  15   2.0000      -0.196259        -5.3405 
  16   0.0000      -0.020203        -0.5497 
  17   0.0000       0.065480         1.7818 
  18   0.0000       0.079506         2.1635 
  19   0.0000       0.099218         2.6999 
  20   0.0000       0.121006         3.2927 
  21   0.0000       0.134626         3.6633 
  22   0.0000       0.140615         3.8263 
  23   0.0000       0.161888         4.4052 
  24   0.0000       0.184079         5.0090 
  25   0.0000       0.277768         7.5585 
  26   0.0000       0.305305         8.3078 
*Only the first 10 virtual orbitals were printed.

                    ********************************
                    * MULLIKEN POPULATION ANALYSIS *
                    ********************************

-----------------------
MULLIKEN ATOMIC CHARGES
-----------------------
   0 C :   -0.193868
   1 C :    0.020250
   2 N :   -0.211048
   3 C :    0.111686
   4 H :    0.014575
   5 H :    0.006827
   6 H :    0.135889
   7 H :    0.038140
   8 H :    0.031315
   9 H :    0.029553
  10 H :    0.016679
Sum of atomic charges:   -0.0000000

--------------------------------
MULLIKEN REDUCED ORBITAL CHARGES
--------------------------------
  0 C s       :     3.127838  s :     3.127838
      pz      :     1.171510  p :     3.041837
      px      :     0.899482
      py      :     0.970844
      dz2     :     0.002300  d :     0.024194
      dxz     :     0.004842
      dyz     :     0.003842
      dx2y2   :     0.004338
      dxy     :     0.008872

  1 C s       :     3.200914  s :     3.200914
      pz      :     0.854747  p :     2.716980
      px      :     0.970297
      py      :     0.891936
      dz2     :     0.004962  d :     0.061856
      dxz     :     0.016319
      dyz     :     0.007449
      dx2y2   :     0.016481
      dxy     :     0.016646

  2 N s       :     3.527508  s :     3.527508
      pz      :     1.384606  p :     3.657652
      px      :     1.022491
      py      :     1.250555
      dz2     :     0.003041  d :     0.025889
      dxz     :     0.008344
      dyz     :     0.002424
      dx2y2   :     0.005962
      dxy     :     0.006118

  3 C s       :     2.980497  s :     2.980497
      pz      :     0.986698  p :     2.867367
      px      :     0.868029
      py      :     1.012640
      dz2     :     0.003279  d :     0.040450
      dxz     :     0.012701
      dyz     :     0.008310
      dx2y2   :     0.011420
      dxy     :     0.004740

  4 H s       :     0.964447  s :     0.964447
      pz      :     0.006197  p :     0.020978
      px      :     0.003127
      py      :     0.011654

  5 H s       :     0.969847  s :     0.969847
      pz      :     0.006525  p :     0.023326
      px      :     0.009636
      py      :     0.007165

  6 H s       :     0.817094  s :     0.817094
      pz      :     0.008588  p :     0.047017
      px      :     0.028837
      py      :     0.009592

  7 H s       :     0.935224  s :     0.935224
      pz      :     0.009545  p :     0.026637
      px      :     0.005656
      py      :     0.011435

  8 H s       :     0.946247  s :     0.946247
      pz      :     0.008695  p :     0.022438
      px      :     0.003132
      py      :     0.010610

  9 H s       :     0.948630  s :     0.948630
      pz      :     0.009346  p :     0.021817
      px      :     0.007356
      py      :     0.005115

 10 H s       :     0.960820  s :     0.960820
      pz      :     0.007253  p :     0.022501
      px      :     0.003920
      py      :     0.011327



                     *******************************
                     * LOEWDIN POPULATION ANALYSIS *
                     *******************************

----------------------
LOEWDIN ATOMIC CHARGES
----------------------
   0 C :   -0.275354
   1 C :    0.080533
   2 N :   -0.071191
   3 C :    0.010055
   4 H :    0.010690
   5 H :    0.008336
   6 H :    0.126755
   7 H :    0.034713
   8 H :    0.027962
   9 H :    0.024974
  10 H :    0.022526

-------------------------------
LOEWDIN REDUCED ORBITAL CHARGES
-------------------------------
  0 C s       :     2.913369  s :     2.913369
      pz      :     1.216445  p :     3.297146
      px      :     1.015594
      py      :     1.065107
      dz2     :     0.004721  d :     0.064839
      dxz     :     0.011980
      dyz     :     0.009703
      dx2y2   :     0.012924
      dxy     :     0.025511

  1 C s       :     2.889117  s :     2.889117
      pz      :     0.879410  p :     2.887076
      px      :     1.041993
      py      :     0.965673
      dz2     :     0.009112  d :     0.143274
      dxz     :     0.037644
      dyz     :     0.016996
      dx2y2   :     0.037415
      dxy     :     0.042106

  2 N s       :     3.202773  s :     3.202773
      pz      :     1.394473  p :     3.809847
      px      :     1.132302
      py      :     1.283072
      dz2     :     0.006137  d :     0.058571
      dxz     :     0.018608
      dyz     :     0.005058
      dx2y2   :     0.013582
      dxy     :     0.015187

  3 C s       :     2.842135  s :     2.842135
      pz      :     1.046928  p :     3.050386
      px      :     0.934179
      py      :     1.069280
      dz2     :     0.006326  d :     0.097424
      dxz     :     0.031831
      dyz     :     0.021563
      dx2y2   :     0.027792
      dxy     :     0.009913

  4 H s       :     0.922431  s :     0.922431
      pz      :     0.019313  p :     0.066879
      px      :     0.012461
      py      :     0.035104

  5 H s       :     0.921768  s :     0.921768
      pz      :     0.019755  p :     0.069896
      px      :     0.028971
      py      :     0.021170

  6 H s       :     0.730709  s :     0.730709
      pz      :     0.016602  p :     0.142536
      px      :     0.106420
      py      :     0.019515

  7 H s       :     0.890585  s :     0.890585
      pz      :     0.029210  p :     0.074702
      px      :     0.013692
      py      :     0.031800

  8 H s       :     0.908265  s :     0.908265
      pz      :     0.024011  p :     0.063772
      px      :     0.010414
      py      :     0.029347

  9 H s       :     0.912295  s :     0.912295
      pz      :     0.026540  p :     0.062730
      px      :     0.023627
      py      :     0.012564

 10 H s       :     0.913100  s :     0.913100
      pz      :     0.019795  p :     0.064374
      px      :     0.012814
      py      :     0.031765



                      *****************************
                      * MAYER POPULATION ANALYSIS *
                      *****************************

  NA   - Mulliken gross atomic population
  ZA   - Total nuclear charge
  QA   - Mulliken gross atomic charge
  VA   - Mayer's total valence
  BVA  - Mayer's bonded valence
  FA   - Mayer's free valence

  ATOM       NA         ZA         QA         VA         BVA        FA
  0 C      6.1939     6.0000    -0.1939     3.6374     3.6374     0.0000
  1 C      5.9797     6.0000     0.0203     3.9282     3.9282     0.0000
  2 N      7.2110     7.0000    -0.2110     3.2161     3.2161    -0.0000
  3 C      5.8883     6.0000     0.1117     3.9211     3.9211    -0.0000
  4 H      0.9854     1.0000     0.0146     0.9882     0.9882    -0.0000
  5 H      0.9932     1.0000     0.0068     0.9850     0.9850    -0.0000
  6 H      0.8641     1.0000     0.1359     1.0335     1.0335    -0.0000
  7 H      0.9619     1.0000     0.0381     0.9960     0.9960     0.0000
  8 H      0.9687     1.0000     0.0313     0.9885     0.9885     0.0000
  9 H      0.9704     1.0000     0.0296     0.9863     0.9863    -0.0000
 10 H      0.9833     1.0000     0.0167     0.9945     0.9945     0.0000

  Mayer bond orders larger than 0.100000
B(  0-C ,  1-C ) :   1.2374 B(  0-C ,  5-H ) :   0.9602 B(  0-C ,  6-H ) :   0.4246 
B(  0-C ,  7-H ) :   0.9297 B(  1-C ,  2-N ) :   1.6314 B(  1-C ,  4-H ) :   0.9523 
B(  2-N ,  3-C ) :   0.9660 B(  2-N ,  6-H ) :   0.5200 B(  3-C ,  8-H ) :   0.9644 
B(  3-C ,  9-H ) :   0.9723 B(  3-C , 10-H ) :   0.9613 

-------
TIMINGS
-------

Total SCF time: 0 days 0 hours 0 min 4 sec 

Total time                  ....       4.333 sec
Sum of individual times     ....       4.007 sec  ( 92.5%)

SCF preparation             ....       0.150 sec  (  3.5%)
Fock matrix formation       ....       3.688 sec  ( 85.1%)
  Startup                   ....       0.004 sec  (  0.1% of F)
  Split-RI-J                ....       0.275 sec  (  7.4% of F)
  Chain of spheres X        ....       2.693 sec  ( 73.0% of F)
  XC integration            ....       0.878 sec  ( 23.8% of F)
    XC Preparation          ....       0.000 sec  (  0.0% of XC)
    Basis function eval.    ....       0.254 sec  ( 28.9% of XC)
    Density eval.           ....       0.127 sec  ( 14.4% of XC)
    XC-Functional eval.     ....       0.061 sec  (  7.0% of XC)
    XC-Potential eval.      ....       0.158 sec  ( 18.0% of XC)
Diagonalization             ....       0.000 sec  (  0.0%)
Density matrix formation    ....       0.022 sec  (  0.5%)
Total Energy calculation    ....       0.013 sec  (  0.3%)
Population analysis         ....       0.011 sec  (  0.3%)
Orbital Transformation      ....       0.012 sec  (  0.3%)
Orbital Orthonormalization  ....       0.000 sec  (  0.0%)
DIIS solution               ....       0.062 sec  (  1.4%)
SOSCF solution              ....       0.049 sec  (  1.1%)
Finished LeanSCF after   4.3 sec

Maximum memory used throughout the entire LEANSCF-calculation: 8.2 MB


-------------------------------------------------------------------------------
                          DFT DISPERSION CORRECTION                            
                                                                               
                              DFTD3 V3.1  Rev 1                                
                          USING Becke-Johnson damping                          
-------------------------------------------------------------------------------
The B3LYP functional is recognized
Active option DFTDOPT                   ...         4   

molecular C6(AA) [au] = 928.356828 


            DFT-D V3
 parameters
 s6 scaling factor         :     1.0000 
 a1 scaling factor         :     0.3981 
 s8 scaling factor         :     1.9889 
 a2 scaling factor         :     4.4211 
 ad hoc parameters k1-k3   :    16.0000     1.3333    -4.0000 

 Edisp/kcal,au: -6.948941480935  -0.011073841953 
 E6   /kcal   :  -3.444835256 
 E8   /kcal   :  -3.504106225 
 % E8         :  50.426474805 

-------------------------   ----------------
Dispersion correction           -0.011073842
-------------------------   ----------------


-------------------------   --------------------
FINAL SINGLE POINT ENERGY      -172.927345572678
-------------------------   --------------------



           ************************************************************
           *        Program running with 6 parallel MPI-processes     *
           *              working on a common directory               *
           ************************************************************
------------------------------------------------------------------------------
                         ORCA SCF GRADIENT CALCULATION
------------------------------------------------------------------------------

Nuc. rep. gradient        (SHARK) ... done (  0.0 sec)
HCore & Overlap gradient  (SHARK) ... done (  0.0 sec)
Split-RIJ-J gradient      (SHARK) ... done (  0.1 sec)
done (  1.6 sec)
XC gradient                       ... done (  0.4 sec)
Dispersion correction             ... done (  0.0 sec)

-------------------
DISPERSION GRADIENT
-------------------

   1   C   :    0.000443320   -0.000387977   -0.000293091
   2   C   :   -0.000213927    0.000047309   -0.000067416
   3   N   :   -0.000647590   -0.000272845   -0.000296609
   4   C   :    0.000353763   -0.000053832    0.000049293
   5   H   :   -0.000048416    0.000185481    0.000065661
   6   H   :   -0.000144566    0.000005080   -0.000022745
   7   H   :   -0.000155316    0.000636556    0.000464725
   8   H   :   -0.000163116   -0.000028977   -0.000015409
   9   H   :    0.000194227   -0.000107024    0.000082768
  10   H   :    0.000196126   -0.000043786   -0.000027820
  11   H   :    0.000185495    0.000020016    0.000060643

Difference to translation invariance:
           :   -0.0000000000    0.0000000000    0.0000000000

Difference to rotation invariance:
           :   -0.0000000000    0.0000000000   -0.0000000000

Norm of the Dispersion gradient    ...    0.0014383782
RMS gradient                       ...    0.0002503895
MAX gradient                       ...    0.0006475898

------------------
CARTESIAN GRADIENT
------------------

   1   C   :   -0.000003347   -0.000017510   -0.000006227
   2   C   :    0.000109769    0.000056979    0.000021506
   3   N   :   -0.000022088    0.000071012    0.000055276
   4   C   :   -0.000035800   -0.000005356   -0.000034786
   5   H   :   -0.000051551   -0.000049263   -0.000023356
   6   H   :   -0.000021712    0.000034685   -0.000011216
   7   H   :   -0.000046257   -0.000029102   -0.000009803
   8   H   :    0.000060196   -0.000032461   -0.000012126
   9   H   :    0.000040307   -0.000015266    0.000065726
  10   H   :   -0.000001550   -0.000008864   -0.000039218
  11   H   :   -0.000027966   -0.000004854   -0.000005777

Difference to translation invariance:
           :    0.0000000000   -0.0000000000   -0.0000000000

Difference to rotation invariance:
           :   -0.0000199032    0.0000475469    0.0001154193

Norm of the Cartesian gradient     ...    0.0002262608
RMS gradient                       ...    0.0000393869
MAX gradient                       ...    0.0001097686

-------
TIMINGS
-------

Total SCF gradient time     ....        2.237 sec

Densities                   ....       0.000 sec  (  0.0%)
One electron gradient       ....       0.020 sec  (  0.9%)
RI-J Coulomb gradient       ....       0.138 sec  (  6.1%)
COSX gradient               ....       1.623 sec  ( 72.5%)
XC gradient                 ....       0.407 sec  ( 18.2%)

Maximum memory used throughout the entire SCFGRAD-calculation: 26.8 MB


           ************************************************************
           *        Program running with 6 parallel MPI-processes     *
           *              working on a common directory               *
           ************************************************************

------------------------------------------------------------------------------
                              ORCA PROPERTY CALCULATIONS
------------------------------------------------------------------------------

GBWName                                 ... orca.gbw
Number of atoms                         ...     11
Number of basis functions               ...     91
Max core memory                         ...   4096 MB

Electric properties:
Dipole moment                           ... YES
Quadrupole moment                       ...  NO
Static polarizability (Dipole/Dipole)   ...  NO
Static polarizability (Dipole/Quad.)    ...  NO
Static polarizability (Quad./Quad.)     ...  NO
Static polarizability (Velocity)        ...  NO
Static hyperpolarizability              ...  NO

Atomic electric properties:
Dipole moment                           ...  NO
Quadrupole moment                       ...  NO
Static polarizability                   ...  NO

Choice of electric origin               ... Center of mass
Position of electric origin             ...    -0.099456     0.075382    -0.193033

General magnetic properties:
Magnetizability                         ...  NO

EPR properties:
g-Tensor (aka g-matrix)                 ...  NO
Zero-Field splitting spin-orbit         ...  NO
Zero-field splitting spin-spin          ...  NO
Hyperfine couplings                     ...  NO (   0 nuclei)
Quadrupole couplings                    ...  NO (   0 nuclei)
Contact density                         ...  NO (   0 nuclei)

NMR properties:
Chemical shifts                         ...  NO (   0 nuclei)
Spin-rotation constants                 ...  NO (   0 nuclei)
Spin-spin couplings                     ...  NO (   0 nuclei,    0 pairs)

Choice of magnetic origin               ... GIAO
Position of magnetic origin             ...     0.000000     0.000000     0.000000

Properties with geometric perturbations:
SCF Hessian                             ...  NO
IR spectrum                             ...  NO
VCD spectrum                            ...  NO
X-ray spectroscopy properties:
SCF XES/XAS/RIXS spectra                ...  NO

SCF SOC stabilization energy            ...  NO
Diagonal Born-Oppenheimer correction    ...  NO

-------------
DIPOLE MOMENT
-------------

Method             : SCF
Type of density    : Electron Density
Multiplicity       :   1
Irrep              :   0
Energy             :  -172.9162717307252422 Eh
Basis              : AO
                                X                 Y                 Z
Electronic contribution:      0.065631899       0.639677984      -0.526948644
Nuclear contribution   :      0.668506656      -0.485265102       1.102903328
                        -----------------------------------------
Total Dipole Moment    :      0.734138555       0.154412881       0.575954684
                        -----------------------------------------
Magnitude (a.u.)       :      0.945794139
Magnitude (Debye)      :      2.404017651



--------------------
Rotational spectrum 
--------------------
 
Rotational constants in cm-1:             1.099211             0.148088             0.138767 
Rotational constants in MHz :         32953.522130          4439.577120          4160.133287 

Dipole components along the rotational axes: 
x,y,z [a.u.] :     0.770149    -0.446519     0.319402 
x,y,z [Debye]:     1.957563    -1.134962     0.811855 

 

Dipole moment calculation done in   0.0 sec 

Maximum memory used throughout the entire PROP-calculation: 4.9 MB

--------------------------------
SUGGESTED CITATIONS FOR THIS RUN
--------------------------------

Below you find a list of papers that are relevant to this ORCA run
We neither can nor want to force you to cite these papers, but we appreciate if you do
You receive ORCA, which is the product of decades of hard work by many enthusiastic individuals, for free
The only thing we kindly ask in return is that you cite our papers,
We deeply appreciate it, if you show your appreciation for ORCA by not just citing the generic ORCA reference.

Please note that relegating all ORCA citations to the supporting information does *not* help us.
SI sections are not indexed - citations you put there will not count into any citation statistics
But we need these citations in order to attract the funding resources that allow us to do what we are doing

Therefore, if you are a happy ORCA user, please consider citing a few of the papers listed below in the main body of your paper

In addition to the list printed below, the program has created the file orca.bibtex that contains the list in bibtex format
You can import this file easily into all common literature databanks and citation aid programs


List of essential papers. We consider these as the minimum necessary citations

  1. Neese, F.
     Software update: the ORCA program system, version 6.0
     WIRES Comput. Molec. Sci. 2025 15(1), e70019
     doi.org/10.1002/wcms.7019

List of papers to cite with high priority. The work reported in these papers was absolutely
necessary for this run to complete.
Our perspective: the developers of density functionals and basis sets usually get cited in chemistry papers
Good! But without the algorithms to do something with them, the functionals or basis sets would not do anything.
Hence, in our opinion, the algorithm design and method developments papers are equally worthy of getting cited

  1. Neese, F.
     An improvement of the resolution of the identity approximation for the formation of the Coulomb matrix
     J. Comp. Chem. 2003 24(14), 1740-1747
     doi.org/10.1002/jcc.10318
  2. Neese, F.; Wennmohs, F.; Hansen, A.; Becker, U.
     Efficient, approximate and parallel Hartree-Fock and hybrid DFT calculations. A 'chain-of-spheres' algorithm for the Hartree-Fock exchange
     Chem. Phys. 2009 356(1-3), 98-109
     doi.org/10.1016/j.chemphys.2008.10.036
  3. Grimme, S.; Antony, J.; Ehrlich, S.; Krieg, H.
     A consistent and accurate ab initio parametrization of density functional dispersion correction (DFT-D) for the 94 elements H-Pu
     J. Chem. Phys. 2010 132 , 154104
     doi.org/10.1063/1.3382344
  4. Grimme, S.; Ehrlich, S.; Goerigk, L.
     Effect of the damping function in dispersion corrected density functional theory
     J. Comput. Chem. 2011 32(7), 1456-1465
     doi.org/10.1002/jcc.21759
  5. Helmich-Paris, B.; de Souza, B.; Neese, F.; Izsák, R.
     An improved chain of spheres for exchange algorithm
     J. Chem. Phys. 2021 155(10), 104109
     doi.org/10.1063/5.0058766
  6. Neese, F.
     The SHARK Integral Generation and Digestion System
     J. Comp. Chem. 2022 44(3), 381
     doi.org/10.1002/jcc.26942

List of suggested additional citations. These are papers that are important in the 'surrounding' of 
of this run, or papers that preceded the highly important papers. If you like your results we are grateful for a citation.

  1. Izsak, R.; Neese, F.
     An overlap fitted chain of spheres exchange method
     J. Chem. Phys. 2011 135 , 144105
     doi.org/10.1063/1.3646921
  2. Izsak, R.; Hansen, A.; Neese, F.
     The resolution of identity and chain of spheres approximations for the LPNO-CCSD singles Fock term
     Molec. Phys. 2012 110 , 2413-2417
     doi.org/10.1080/00268976.2012.687466
  3. Neese, F.
     The ORCA program system
     WIRES Comput. Molec. Sci. 2012 2(1), 73-78
     doi.org/10.1002/wcms.81
  4. Izsak, R.; Neese, F.; Klopper, W.
     Robust fitting techniques in the chain of spheres approximation to the Fock exchange: The role of the complementary space
     J. Chem. Phys. 2013 139 , 
     doi.org/10.1063/1.4819264
  5. Neese, F.
     Software update: the ORCA program system, version 4.0
     WIRES Comput. Molec. Sci. 2018 8(1), 1-6
     doi.org/10.1002/wcms.1327
  6. Neese, F.; Wennmohs, F.; Becker, U.; Riplinger, C.
     The ORCA quantum chemistry program package
     J. Chem. Phys. 2020 152(22), 224108
     doi.org/10.1063/5.0004608
  7. Neese, F.
     Software update: The ORCA program system—Version 5.0
     WIRES Comput. Molec. Sci. 2022 12(1), e1606
     doi.org/10.1002/wcms.1606

List of optional additional citations

  1. Neese, F.
     Approximate second-order SCF convergence for spin unrestricted wavefunctions
     Chem. Phys. Lett. 2000 325(1-3), 93-98
     doi.org/10.1016/s0009-2614(00)00662-x

Timings for individual modules:

Sum of individual times          ...        9.411 sec (=   0.157 min)
Startup calculation              ...        0.983 sec (=   0.016 min)  10.4 %
SCF iterations                   ...        5.225 sec (=   0.087 min)  55.5 %
Property calculations            ...        0.525 sec (=   0.009 min)   5.6 %
SCF Gradient evaluation          ...        2.679 sec (=   0.045 min)  28.5 %
                             ****ORCA TERMINATED NORMALLY****
TOTAL RUN TIME: 0 days 0 hours 0 minutes 10 seconds 5 msec
