
                                 *****************
                                 * O   R   C   A *
                                 *****************

                                            #,                                       
                                            ###                                      
                                            ####                                     
                                            #####                                    
                                            ######                                   
                                           ########,                                 
                                     ,,################,,,,,                         
                               ,,#################################,,                 
                          ,,##########################################,,             
                       ,#########################################, ''#####,          
                    ,#############################################,,   '####,        
                  ,##################################################,,,,####,       
                ,###########''''           ''''###############################       
              ,#####''   ,,,,##########,,,,          '''####'''          '####       
            ,##' ,,,,###########################,,,                        '##       
           ' ,,###''''                  '''############,,,                           
         ,,##''                                '''############,,,,        ,,,,,,###''
      ,#''                                            '''#######################'''  
     '                                                          ''''####''''         
             ,#######,   #######,   ,#######,      ##                                
            ,#'     '#,  ##    ##  ,#'     '#,    #''#        ,####,    ,#,          
            ##       ##  ##   ,#'  ##            #'  '#       #'       ,# #          
            ##       ##  #######   ##           ,######,      #####,      #          
            '#,     ,#'  ##    ##  '#,     ,#' ,#      #,     #,   #      #          
             '#######'   ##     ##  '#######'  #'      '#     '####' #    #          



                #########################################################
                #                        -***-                          #
                #          Department of theory and spectroscopy        #
                #                                                       #
                #                      Frank Neese                      #
                #                                                       #
                #     Directorship, Architecture, Infrastructure        #
                #                    SHARK, DRIVERS                     #
                #        Core code/Algorithms in most modules           #
                #                                                       #
                #        Max Planck Institute fuer Kohlenforschung      #
                #                Kaiser Wilhelm Platz 1                 #
                #                 D-45470 Muelheim/Ruhr                 #
                #                      Germany                          #
                #                                                       #
                #                  All rights reserved                  #
                #                        -***-                          #
                #########################################################


                         Program Version 6.1.0  -  RELEASE   -
                                (GIT: $679e74b$)
                          ($2025-06-10 18:02:51 +0200$)


 With contributions from (in alphabetic order):
[Max-Planck-Institut fuer Kohlenforschung]                               
  Daniel Aravena         : Magnetic Suceptibility                        
  Michael Atanasov       : Ab Initio Ligand Field Theory (pilot matlab implementation)
  Alexander A. Auer      : GIAO ZORA, VPT2 properties, NMR spectrum      
  Ute Becker             : All parallelization in ORCA, NUMFREQ, NUMCALC 
  Giovanni Bistoni       : ED, misc. LED, open-shell LED, HFLD           
  Dmytro Bykov           : pre 5.0 version of the SCF Hessian            
  Marcos Casanova-Páez   : Triplet and SCS-CIS(D). UHF-(DLPNO)-IP/EA/STEOM-CCSD. UHF-CVS-IP/STEOM-CCSD   
  Vijay G. Chilkuri      : MRCI spin determinant printing, contributions to CSF-ICE 
  Pauline Colinet        : FMM embedding                                 
  Dipayan Datta          : RHF DLPNO-CCSD density                        
  Achintya Kumar Dutta   : EOM-CC, STEOM-CC                              
  Nicolas Foglia         : Exact transition moments, OPA infrastructure, MCD improvements    
  Dmitry Ganyushin       : Spin-Orbit,Spin-Spin,Magnetic field MRCI      
  Miquel Garcia-Rates    : C-PCM and meta-GGA Hessian, CCSD/C-PCM, Gaussian charge scheme 
  Tiago L. C. Gouveia    : GS-ROHF, GS-ROCIS                             
  Yang Guo               : DLPNO-NEVPT2, F12-NEVPT2, CIM, IAO-localization        
  Andreas Hansen         : Spin unrestricted coupled pair/coupled cluster methods 
  Ingolf Harden          : AUTO-CI MPn and infrastructure                
  Benjamin Helmich-Paris : MC-RPA, TRAH-(SCF,CASSCF), AVAS, COSX integrals, SCF dyn. polar., MC-PDFT, srDFT 
  Lee Huntington         : MR-EOM, pCC                                   
  Robert Izsak           : Overlap fitted RIJCOSX, COSX-SCS-MP3, EOM     
  Riya Kayal             : Wick's Theorem for AUTO-CI, AUTO-CI UHF-CCSDT 
  Emily Kempfer          : AUTO-CI RHF CISDT and CCSDT, approximate NEVPT4
  Christian Kollmar      : KDIIS, OOCD, Brueckner-CCSD(T), CCSD density, CASPT2, CASPT2-K, improved NEVPT2 
  Axel Koslowski         : Symmetry handling                             
  Simone Kossmann        : meta-GGA functionals, TD-DFT gradient, OOMP2, (MP2 Hessian; deprecated post 5.0) 
  Lucas Lang             : DCDCAS, Hyperfine gauge corrections, ICE-SOC+SSC
  Marvin Lechner         : AUTO-CI (C++ implementation), FIC-MRCC        
  Spencer Leger          : CASSCF response                               
  Dagmar Lenk            : GEPOL surface, SMD, ORCA-2-JSON               
  Dimitrios Liakos       : Extrapolation schemes; Compound Job, Property file
  Dimitrios Manganas     : Further ROCIS development; embedding schemes. LFT, Crystal Embedding 
  Dimitrios Pantazis     : SARC Basis sets                               
  Anastasios Papadopoulos: AUTO-CI, single reference methods and gradients 
  Taras Petrenko         : pre 6.0 DFT Hessian and TD-DFT gradient,  ECA, NRVS 
  Petra Pikulova         : Analytic Raman intensities                    
  Peter Pinski           : DLPNO-MP2, DLPNO-MP2 Gradient                 
  Shashank Vittal Rao    : ES-AILFT, MagRelax                            
  Christoph Reimann      : Effective Core Potentials                     
  Marius Retegan         : Local ZFS, SOC                                
  Christoph Riplinger    : Optimizer, TS searches, QM/MM, DLPNO-CCSD(T), (RO)-DLPNO pert. Triples 
  Michael Roemelt        : Original ROCIS implementation, recursive CI coupling coefficients
  Masaaki Saitow         : Open-shell DLPNO-CCSD energy and density      
  Barbara Sandhoefer     : DKH picture change effects                    
  Yorick L. A. Schmerwitz: GMF and freeze-and-release deltaSCF, NEB S-IDPP initial path                    
  Kantharuban Sivalingam : CASSCF convergence/infrastructure, NEVPT2, NEVPT3, NEVPT4(SD), FIC-MRCI and CEPA variants
  Bernardo de Souza      : ESD, SOC TD-DFT                               
  Georgi L. Stoychev     : AutoAux, RI-MP2 NMR, DLPNO-MP2 response, X2C  
  Van Anh Tran           : RI-MP2 g-tensors                              
  Willem Van den Heuvel  : Paramagnetic NMR                              
  Zikuan Wang            : NOTCH, Electric field optimization            
  Frank Wennmohs         : Technical directorship and infrastructure     
  Hang Xu                : AUTO-CI-Response properties                   
                                                                         
[FACCTs GmbH]                                                            
  Markus Bursch, Nicolas Foglia, Miquel Garcia-Rates, Ingolf Harden, Hagen Neugebauer, Anastasios Papadopoulos, 
  Christoph Riplinger, Bernardo de Souza, Georgi L. Stoychev                                                    
                                                                 
  APM, various basis sets, CI-OPT, improved COSX, DLPNO-Multilevel,           
  DOCKER, DRACO, updates on ESD, Fragmentator, GOAT, IRC, LR-CPCM, L-BFGS, MBIS, meta-GGA TD-DFT gradient, ML-optimized integration grids, 
  MM, NACMEs, nearIR, NEB, NEB-TS, NL-DFT gradient (VV10), 2- and 3-layer-ONIOM, interface openCOSMO-RS, QMMM,   
  Crystal-QMMM, RESP, rigid body optimization, SF, symmetry and pop. for TD-DFT, various functionals, SOLVATOR                                   
                                                                         
[Other institutions]                                                     
  V. Asgeirsson          : NEB                                           
  Christoph Bannwarth    : sTDA-DFT, sTD-DFT, PBEh-3c, B97-3c, D3        
  Giovanni Bistoni       : ETS/NOCV, ADLD/ADEX, COVALED                  
  Martin Brehm           : Molecular dynamics                            
  Ronald Cardenas        : ETS/NOCV                                      
  Martina Colucci        : COVALED                                       
  Sebastian Ehlert       : rSCAN, r2SCAN, r2SCAN-3c, D4, dhf basis sets  
  Marvin Friede          : D4 for Fr, Ra, Ac-Lr                          
  Lars Goerigk           : TD-DFT with DH, B97 family of functionals     
  Stefan Grimme          : VdW corrections, initial TS optimization, DFT functionals, gCP, sTDA/sTD-DF 
  Waldemar Hujo          : DFT-NL                                        
  H. Jonsson             : NEB                                           
  Holger Kruse           : gCP                                           
  Marcel Mueller         : wB97X-3c, vDZP basis set                      
  Hagen Neugebauer       : wr2SCAN, Native XTB                           
  Gianluca Regni         : ADLD/ADEX                                     
  Tobias Risthaus        : pre 6.0 range-separated hybrid DFT and stability analysis
  Lukas Wittmann         : regularized MP2, r2SCAN double-hybrids, wr2SCAN        
                                                                         
We gratefully acknowledge several colleagues who have allowed us to      
interface, adapt or use parts of their codes:                            
  Ed Valeev, F. Pavosevic, A. Kumar             : LibInt (2-el integral package), F12 methods 
  Garnet Chan, S. Sharma, J. Yang, R. Olivares  : DMRG                   
  Ulf Ekstrom                                   : XCFun DFT Library      
  Mihaly Kallay                                 : mrcc  (arbitrary order and MRCC methods)
  Frank Weinhold                                : gennbo (NPA and NBO analysis)           
  Simon Mueller                                 : openCOSMO-RS                            
  Christopher J. Cramer and Donald G. Truhlar   : smd solvation model                     
  S Lehtola, MJT Oliveira, MAL Marques          : LibXC Library                           
  Liviu Ungur et al                             : ANISO software                          


 Your calculation uses the libint2 library for the computation of 2-el integrals
 For citations please refer to: http://libint.valeyev.net

 Your ORCA version has been built with support for libXC version: 7.0.0
 For citations please refer to: https://libxc.gitlab.io

 This ORCA versions uses:
   CBLAS   interface :  Fast vector & matrix operations
   LAPACKE interface :  Fast linear algebra routines
   SCALAPACK package :  Parallel linear algebra routines
   Shared memory     :  Shared parallel matrices
   BLAS/LAPACK       :  OpenBLAS 0.3.29  USE64BITINT DYNAMIC_ARCH NO_AFFINITY Zen SINGLE_THREADED
        Core in use  :  Zen
   Copyright (c) 2011-2014, The OpenBLAS Project


  ***********************************
  * Starting time: Wed Sep 10 13:36:54 2025
  * Host name:     wyk-Server
  * Process ID:    2303080
  * Working dir.:  /home/wyk/Documents/code/openQDC/MGMR/singlepointcalc/91/react
  ***********************************

Your calculation utilizes the atom-pairwise dispersion correction
with the Becke-Johnson damping scheme (D3BJ)


Warning: RI is on but no J-basis has been assigned. Assigning Def2/J (nothing to worry about!)
================================================================================

----- Orbital basis set information -----
Your calculation utilizes the basis: def2-SVP
   F. Weigend and R. Ahlrichs, Phys. Chem. Chem. Phys. 7, 3297 (2005).

----- AuxJ basis set information -----
Your calculation utilizes the auxiliary basis: def2/J
   H-Rn: F. Weigend, Phys. Chem. Chem. Phys. 8, 1057 (2006).
   Fr-Lr: K. Eichkorn, F. Weigend, O. Treutler, R. Ahlrichs; Theor. Chem. Acc. 97, 119 (1997).

================================================================================
                                        WARNINGS
                       Please study these warnings very carefully!
================================================================================


================================================================================
                                       INPUT FILE
================================================================================
NAME = orca.inp
|  1> ! B3LYP def2-SVP d3 EnGrad 
|  2> %pal nprocs 6 end 
|  3> *xyz 0 1 
|  4> C   0.4523858005419 -0.2117323110659 -0.06492333655719
|  5> C   0.90620529976004 1.10923656270737 -0.20129532569938
|  6> C   2.27940645475289 1.3778363575269 -0.13710175803831
|  7> C   3.20305777112138 0.35231714324229 0.06264351364111
|  8> C   2.74235508671566 -0.96428406494665 0.20017739232984
|  9> C   1.38119392703426 -1.24771660830611 0.13769694536905
| 10> O   -0.85310344238766 -0.58235461426918 -0.11131942496923
| 11> C   -1.8441486273194 0.40508576470003 -0.34282613181643
| 12> C   -3.18053658084859 -0.26913941864821 -0.39586833645868
| 13> C   -4.24896430500004 0.12417869467783 0.29977188000996
| 14> H   0.20707683575802 1.93082314388427 -0.3567843606222
| 15> H   2.62297803072388 2.41003480266023 -0.24617490846517
| 16> H   4.27187144594711 0.57214274078061 0.11237080526202
| 17> H   3.45347546193431 -1.77936808758245 0.35873902904206
| 18> H   1.0030547760125 -2.2665558549654 0.24335978287689
| 19> H   -1.82666711059037 1.17553457093311 0.45069324133584
| 20> H   -3.24537855638229 -1.12586143046748 -1.07744316800932
| 21> H   -5.21355744512231 -0.38108409951074 0.20082253771596
| 22> H   -4.20128903239732 0.97021731011477 0.99411104007355
| 23> H   -1.63869279025401 0.9160493985347 -1.30564641702036
| 24> *
| 25> 
| 26>                          ****END OF INPUT****
================================================================================

                     *******************************
                     * Energy+Gradient Calculation *
                     *******************************

---------------------------------
CARTESIAN COORDINATES (ANGSTROEM)
---------------------------------
  C      0.452386   -0.211732   -0.064923
  C      0.906205    1.109237   -0.201295
  C      2.279406    1.377836   -0.137102
  C      3.203058    0.352317    0.062644
  C      2.742355   -0.964284    0.200177
  C      1.381194   -1.247717    0.137697
  O     -0.853103   -0.582355   -0.111319
  C     -1.844149    0.405086   -0.342826
  C     -3.180537   -0.269139   -0.395868
  C     -4.248964    0.124179    0.299772
  H      0.207077    1.930823   -0.356784
  H      2.622978    2.410035   -0.246175
  H      4.271871    0.572143    0.112371
  H      3.453475   -1.779368    0.358739
  H      1.003055   -2.266556    0.243360
  H     -1.826667    1.175535    0.450693
  H     -3.245379   -1.125861   -1.077443
  H     -5.213557   -0.381084    0.200823
  H     -4.201289    0.970217    0.994111
  H     -1.638693    0.916049   -1.305646

----------------------------
CARTESIAN COORDINATES (A.U.)
----------------------------
  NO LB      ZA    FRAG     MASS         X           Y           Z
   0 C     6.0000    0    12.011    0.854885   -0.400116   -0.122687
   1 C     6.0000    0    12.011    1.712480    2.096153   -0.380393
   2 C     6.0000    0    12.011    4.307454    2.603733   -0.259085
   3 C     6.0000    0    12.011    6.052902    0.665783    0.118379
   4 C     6.0000    0    12.011    5.182300   -1.822233    0.378280
   5 C     6.0000    0    12.011    2.610078   -2.357843    0.260210
   6 O     8.0000    0    15.999   -1.612132   -1.100491   -0.210363
   7 C     6.0000    0    12.011   -3.484936    0.765501   -0.647848
   8 C     6.0000    0    12.011   -6.010343   -0.508600   -0.748083
   9 C     6.0000    0    12.011   -8.029379    0.234664    0.566487
  10 H     1.0000    0     1.008    0.391319    3.648727   -0.674225
  11 H     1.0000    0     1.008    4.956710    4.554306   -0.465203
  12 H     1.0000    0     1.008    8.072667    1.081193    0.212350
  13 H     1.0000    0     1.008    6.526123   -3.362518    0.677919
  14 H     1.0000    0     1.008    1.895499   -4.283170    0.459883
  15 H     1.0000    0     1.008   -3.451901    2.221438    0.851687
  16 H     1.0000    0     1.008   -6.132877   -2.127570   -2.036073
  17 H     1.0000    0     1.008   -9.852196   -0.720145    0.379500
  18 H     1.0000    0     1.008   -7.939286    1.833445    1.878598
  19 H     1.0000    0     1.008   -3.096681    1.731082   -2.467314

--------------------------------
INTERNAL COORDINATES (ANGSTROEM)
--------------------------------
 C      0   0   0     0.000000000000     0.00000000     0.00000000
 C      1   0   0     1.403391685443     0.00000000     0.00000000
 C      2   1   0     1.400695568630   119.54267946     0.00000000
 C      3   2   1     1.394532031419   120.98958568   359.89059487
 C      4   3   2     1.401642348322   119.15149832     0.00000000
 C      5   4   3     1.391760581247   120.55402052     0.04499842
 O      1   2   3     1.357871736232   124.36699667   180.00553513
 C      7   1   2     1.418028355115   119.17267612     1.55589370
 C      8   7   1     1.497773626311   108.41537861   177.96741204
 C      9   8   7     1.334223463583   124.28681586   129.80614935
 H      2   1   3     1.089936676844   121.06164174   179.98516131
 H      3   2   1     1.093330695670   118.98248673   179.89802351
 H      4   3   2     1.092318071058   120.43843776   180.06982481
 H      5   4   3     1.093250174774   120.05010760   180.08772400
 H      6   5   4     1.091873281704   121.62727083   180.04948490
 H      8   7   1     1.106150967102   110.90702325   299.67012348
 H      9   8   7     1.096686526921   115.24047692   308.64141887
 H     10   9   8     1.093399007455   121.53661885   177.86850717
 H     10   9   8     1.095518662381   121.55133064   358.06523402
 H      8   7   1     1.109197384457   109.45338460    57.98278054

---------------------------
INTERNAL COORDINATES (A.U.)
---------------------------
 C      0   0   0     0.000000000000     0.00000000     0.00000000
 C      1   0   0     2.652025944110     0.00000000     0.00000000
 C      2   1   0     2.646931021708   119.54267946     0.00000000
 C      3   2   1     2.635283624363   120.98958568   359.89059487
 C      4   3   2     2.648720176035   119.15149832     0.00000000
 C      5   4   3     2.630046342544   120.55402052     0.04499842
 O      1   2   3     2.566005706470   124.36699667   180.00553513
 C      7   1   2     2.679685241302   119.17267612     1.55589370
 C      8   7   1     2.830381964338   108.41537861   177.96741204
 C      9   8   7     2.521316947623   124.28681586   129.80614935
 H      2   1   3     2.059681822551   121.06164174   179.98516131
 H      3   2   1     2.066095588626   118.98248673   179.89802351
 H      4   3   2     2.064182005432   120.43843776   180.06982481
 H      5   4   3     2.065943426185   120.05010760   180.08772400
 H      6   5   4     2.063341475366   121.62727083   180.04948490
 H      8   7   1     2.090322390595   110.90702325   299.67012348
 H      9   8   7     2.072437190642   115.24047692   308.64141887
 H     10   9   8     2.066224679190   121.53661885   177.86850717
 H     10   9   8     2.070230246501   121.55133064   358.06523402
 H      8   7   1     2.096079285085   109.45338460    57.98278054

---------------------
BASIS SET INFORMATION
---------------------
There are 3 groups of distinct atoms

 Group   1 Type C   : 7s4p1d contracted to 3s2p1d pattern {511/31/1}
 Group   2 Type O   : 7s4p1d contracted to 3s2p1d pattern {511/31/1}
 Group   3 Type H   : 4s1p contracted to 2s1p pattern {31/1}

Atom   0C    basis set group =>   1
Atom   1C    basis set group =>   1
Atom   2C    basis set group =>   1
Atom   3C    basis set group =>   1
Atom   4C    basis set group =>   1
Atom   5C    basis set group =>   1
Atom   6O    basis set group =>   2
Atom   7C    basis set group =>   1
Atom   8C    basis set group =>   1
Atom   9C    basis set group =>   1
Atom  10H    basis set group =>   3
Atom  11H    basis set group =>   3
Atom  12H    basis set group =>   3
Atom  13H    basis set group =>   3
Atom  14H    basis set group =>   3
Atom  15H    basis set group =>   3
Atom  16H    basis set group =>   3
Atom  17H    basis set group =>   3
Atom  18H    basis set group =>   3
Atom  19H    basis set group =>   3
---------------------------------
AUXILIARY/J BASIS SET INFORMATION
---------------------------------
There are 3 groups of distinct atoms

 Group   1 Type C   : 12s5p4d2f1g contracted to 6s4p3d1f1g pattern {711111/2111/211/2/1}
 Group   2 Type O   : 12s5p4d2f1g contracted to 6s4p3d1f1g pattern {711111/2111/211/2/1}
 Group   3 Type H   : 5s2p1d contracted to 3s1p1d pattern {311/2/1}

Atom   0C    basis set group =>   1
Atom   1C    basis set group =>   1
Atom   2C    basis set group =>   1
Atom   3C    basis set group =>   1
Atom   4C    basis set group =>   1
Atom   5C    basis set group =>   1
Atom   6O    basis set group =>   2
Atom   7C    basis set group =>   1
Atom   8C    basis set group =>   1
Atom   9C    basis set group =>   1
Atom  10H    basis set group =>   3
Atom  11H    basis set group =>   3
Atom  12H    basis set group =>   3
Atom  13H    basis set group =>   3
Atom  14H    basis set group =>   3
Atom  15H    basis set group =>   3
Atom  16H    basis set group =>   3
Atom  17H    basis set group =>   3
Atom  18H    basis set group =>   3
Atom  19H    basis set group =>   3


           ************************************************************
           *        Program running with 6 parallel MPI-processes     *
           *              working on a common directory               *
           ************************************************************
------------------------------------------------------------------------------
                             ORCA STARTUP CALCULATIONS
                           -- RI-GTO INTEGRALS CHOSEN --
------------------------------------------------------------------------------
------------------------------------------------------------------------------
                   ___                                                        
                  /   \      - P O W E R E D   B Y -                         
                 /     \                                                     
                 |  |  |   _    _      __       _____    __    __             
                 |  |  |  | |  | |    /  \     |  _  \  |  |  /  |          
                  \  \/   | |  | |   /    \    | | | |  |  | /  /          
                 / \  \   | |__| |  /  /\  \   | |_| |  |  |/  /          
                |  |  |   |  __  | /  /__\  \  |    /   |      \           
                |  |  |   | |  | | |   __   |  |    \   |  |\   \          
                \     /   | |  | | |  |  |  |  | |\  \  |  | \   \       
                 \___/    |_|  |_| |__|  |__|  |_| \__\ |__|  \__/        
                                                                              
                      - O R C A' S   B I G   F R I E N D -                    
                                      &                                       
                       - I N T E G R A L  F E E D E R -                       
                                                                              
 v1 FN, 2020, v2 2021, v3 2022-2024                                           
------------------------------------------------------------------------------


----------------------
SHARK INTEGRAL PACKAGE
----------------------

Number of atoms                             ...     20
Number of basis functions                   ...    190
Number of shells                            ...     90
Maximum angular momentum                    ...      2
Integral batch strategy                     ... SHARK/LIBINT Hybrid
RI-J (if used) integral strategy            ... SPLIT-RIJ (Revised 2003 algorithm where possible)
Printlevel                                  ...      1
Contraction scheme used                     ... SEGMENTED contraction
Prescreening option                         ... SCHWARTZ
   Thresh                                   ... 2.500e-11
   Tcut                                     ... 2.500e-12
   Tpresel                                  ... 2.500e-12 
Coulomb Range Separation                    ... NOT USED
Exchange Range Separation                   ... NOT USED
Multipole approximations                    ... NOT USED
Finite Nucleus Model                        ... NOT USED
CABS basis                                  ... NOT available
Auxiliary Coulomb fitting basis             ... AVAILABLE
   # of basis functions in Aux-J            ...    600
   # of shells in Aux-J                     ...    200
   Maximum angular momentum in Aux-J        ...      4
Auxiliary J/K fitting basis                 ... NOT available
Auxiliary Correlation fitting basis         ... NOT available
Auxiliary 'external' fitting basis          ... NOT available

Checking pre-screening integrals            ... done (  0.0 sec) Dimension = 90
   => SHARK Basis and OBASIS are compatible. Storing Pre-screening
Shell pair information
Shell pair cut-off parameter TPreSel        ...   2.5e-12
Total number of shell pairs                 ...      4095
Shell pairs after pre-screening             ...      3561
Total number of primitive shell pairs       ...     14695
Primitive shell pairs kept                  ...      9094
          la=0 lb=0:   1123 shell pairs
          la=1 lb=0:   1314 shell pairs
          la=1 lb=1:    407 shell pairs
          la=2 lb=0:    423 shell pairs
          la=2 lb=1:    248 shell pairs
          la=2 lb=2:     46 shell pairs

Checking whether 4 symmetric matrices of dimension 190 fit in memory
:Max Core in MB      =   4096.00
 MB in use           =      7.89
 MB left             =   4088.11
 MB needed           =      0.55
 Data fit in memory  = YES
Calculating RI/J V-Matrix + Cholesky decomp.... done (  0.0 sec)
Calculating Nuclear repulsion               ... done (  0.0 sec) ENN=    472.528306664250 Eh

Diagonalization of the overlap matrix:
Smallest eigenvalue                        ... 2.841e-04
Time for diagonalization                   ...    0.006 sec
Threshold for overlap eigenvalues          ... 1.000e-07
Number of eigenvalues below threshold      ... 0
Time for construction of square roots      ...    0.002 sec
Total time needed                          ...    0.009 sec

-------------------
DFT GRID GENERATION
-------------------

General Integration Accuracy     IntAcc      ... 4.388
Radial Grid Type                 RadialGrid  ... OptM3 with GC (2021)
Angular Grid (max. ang.)         AngularGrid ... 4 (Lebedev-302)
Angular grid pruning method      GridPruning ... 4 (adaptive)
Weight generation scheme         WeightScheme... mBecke (2022)
Basis function cutoff            BFCut       ... 1.0000e-11
Integration weight cutoff        WCut        ... 1.0000e-14
Partially contracted basis set               ... off
Rotationally invariant grid construction     ... off
Angular grids for H and He will be reduced by one unit

Total number of grid points                  ...    92397
Total number of batches                      ...     1453
Average number of points per batch           ...       63
Average number of grid points per atom       ...     4620

--------------------
COSX GRID GENERATION
--------------------

GRIDX 1
-------
General Integration Accuracy     IntAcc      ... 3.816
Radial Grid Type                 RadialGrid  ... OptM3 with GC (2021)
Angular Grid (max. ang.)         AngularGrid ... 1 (Lebedev-50)
Angular grid pruning method      GridPruning ... 4 (adaptive)
Weight generation scheme         WeightScheme... mBecke (2022)
Basis function cutoff            BFCut       ... 1.0000e-11
Integration weight cutoff        WCut        ... 1.0000e-14
Partially contracted basis set               ... on
Rotationally invariant grid construction     ... off
Angular grids for H and He will be reduced by one unit

Total number of grid points                  ...    11818
Total number of batches                      ...      105
Average number of points per batch           ...      112
Average number of grid points per atom       ...      591
UseSFitting                                  ... on

GRIDX 2
-------
General Integration Accuracy     IntAcc      ... 4.020
Radial Grid Type                 RadialGrid  ... OptM3 with GC (2021)
Angular Grid (max. ang.)         AngularGrid ... 2 (Lebedev-110)
Angular grid pruning method      GridPruning ... 4 (adaptive)
Weight generation scheme         WeightScheme... mBecke (2022)
Basis function cutoff            BFCut       ... 1.0000e-11
Integration weight cutoff        WCut        ... 1.0000e-14
Partially contracted basis set               ... on
Rotationally invariant grid construction     ... off
Angular grids for H and He will be reduced by one unit

Total number of grid points                  ...    25575
Total number of batches                      ...      209
Average number of points per batch           ...      122
Average number of grid points per atom       ...     1279
UseSFitting                                  ... on

GRIDX 3
-------
General Integration Accuracy     IntAcc      ... 4.338
Radial Grid Type                 RadialGrid  ... OptM3 with GC (2021)
Angular Grid (max. ang.)         AngularGrid ... 3 (Lebedev-194)
Angular grid pruning method      GridPruning ... 4 (adaptive)
Weight generation scheme         WeightScheme... mBecke (2022)
Basis function cutoff            BFCut       ... 1.0000e-11
Integration weight cutoff        WCut        ... 1.0000e-14
Partially contracted basis set               ... on
Rotationally invariant grid construction     ... off
Angular grids for H and He will be reduced by one unit

Total number of grid points                  ...    56149
Total number of batches                      ...      451
Average number of points per batch           ...      124
Average number of grid points per atom       ...     2807
UseSFitting                                  ... on
Grids setup in   1.5 sec
Initializing property integral containers    ... done (  0.0 sec)

SHARK setup successfully completed in   1.6 seconds

Maximum memory used throughout the entire STARTUP-calculation: 26.1 MB


           ************************************************************
           *        Program running with 6 parallel MPI-processes     *
           *              working on a common directory               *
           ************************************************************
-------------------------------------------------------------------------------
                                 ORCA GUESS
                   Start orbitals & Density for SCF / CASSCF
-------------------------------------------------------------------------------

------------
SCF SETTINGS
------------
Hamiltonian:
 Density Functional     Method          .... DFT(GTOs)
 Exchange Functional    Exchange        .... B88
   X-Alpha parameter    XAlpha          ....  0.666667
   Becke's b parameter  XBeta           ....  0.004200
 Correlation Functional Correlation     .... LYP
 LDA part of GGA corr.  LDAOpt          .... VWN-5
 Gradients option       PostSCFGGA      .... off
 Hybrid DFT is turned on
   Fraction HF Exchange ScalHFX         ....  0.200000
   Scaling of DF-GGA-X  ScalDFX         ....  0.720000
   Scaling of DF-GGA-C  ScalDFC         ....  0.810000
   Scaling of DF-LDA-C  ScalLDAC        ....  1.000000
   Perturbative correction              ....  0.000000
   NL short-range parameter             ....  4.800000
 RI-approximation to the Coulomb term is turned on
   Number of AuxJ basis functions       .... 600
   RIJ-COSX (HFX calculated with COS-X)).... on


General Settings:
 Integral files         IntName         .... orca
 Hartree-Fock type      HFTyp           .... RHF
 Total Charge           Charge          ....    0
 Multiplicity           Mult            ....    1
 Number of Electrons    NEL             ....   72
 Basis Dimension        Dim             ....  190
 Nuclear Repulsion      ENuc            ....    472.5283066642 Eh

Convergence Acceleration:
 AO-DIIS                CNVDIIS         .... on
   Start iteration      DIISMaxIt       ....    12
   Startup error        DIISStart       ....  0.200000
   # of expansion vecs  DIISMaxEq       ....     5
   Bias factor          DIISBfac        ....   1.050
   Max. coefficient     DIISMaxC        ....  10.000
 MO-DIIS                CNVKDIIS        .... off
 Trust-Rad. Augm. Hess. CNVTRAH         .... auto
   Auto Start mean grad. ratio tolernc. ....  1.125000
   Auto Start start iteration           ....    50
   Auto Start num. interpolation iter.  ....    10
   Max. Number of Micro iterations      ....    24
   Max. Number of Macro iterations      .... Maxiter - #DIIS iter
   Number of Davidson start vectors     ....     2
   Converg. threshold    (grad. norm)   ....   1.000e-05
   Grad. Scal. Fac. for Micro threshold ....   0.100
   Minimum threshold for Micro iter.    ....   1.000e-02
   NR start threshold (gradient norm)   ....   1.000e-04
   Initial trust radius                 ....   0.400
   Minimum AH scaling param. (alpha)    ....   1.000
   Maximum AH scaling param. (alpha)    .... 1000.000
   Quad. conv. algorithm                .... NR
   White noise on init. David. guess    .... on
   Maximum white noise                  ....   0.010
   Pseudo random numbers                .... off
   Inactive MOs                         .... canonical
   Orbital update algorithm             .... Taylor
   Preconditioner                       .... Diag
   Full preconditioner red. dimension   ....   250
 SOSCF                 CNVSOSCF           .... on
   Start iteration     SOSCFMaxIt         ....   150
   Startup grad/error  SOSCFStart         ....  0.003300
   Hessian update      SOSCFHessUp        .... L-BFGS
   Autom. constraints  SOSCFAutoConstrain .... off
 Level Shifting         CNVShift        .... on
   Level shift para.    LevelShift      ....    0.2500
   Turn off err/grad.   ShiftErr        ....    0.0010
 Zerner damping         CNVZerner       .... off
 Static damping         CNVDamp         .... on
   Fraction old density DampFac         ....    0.7000
   Max. Damping (<1)    DampMax         ....    0.9800
   Min. Damping (>=0)   DampMin         ....    0.0000
   Turn off err/grad.   DampErr         ....    0.1000

SCF Procedure:
 Maximum # iterations   MaxIter         ....   125
 SCF integral mode      SCFMode         .... Direct
   Integral package                     .... SHARK and LIBINT hybrid scheme
 Reset frequency        DirectResetFreq ....    20
 Integral Threshold     Thresh          ....  2.500e-11 Eh
 Primitive CutOff       TCut            ....  2.500e-12 Eh

Convergence Tolerance:
 Convergence Check Mode ConvCheckMode   .... Total+1el-Energy
 Convergence forced     ConvForced      .... 0
 Energy Change          TolE            ....  1.000e-08 Eh
 1-El. energy change                    ....  1.000e-05 Eh
 Orbital Gradient       TolG            ....  1.000e-05
 Orbital Rotation angle TolX            ....  1.000e-05
 DIIS Error             TolErr          ....  5.000e-07

------------------------------
INITIAL GUESS: MODEL POTENTIAL
------------------------------
Loading Hartree-Fock densities                     ... done
Calculating cut-offs                               ... done
Initializing the effective Hamiltonian             ... done
Setting up the integral package (SHARK)            ... done
Starting the Coulomb interaction                   ... done (   0.1 sec)
Making the grid                                    ... done (   0.2 sec)
Mapping shells                                     ... done
Starting the XC term evaluation                    ... done (   0.1 sec)
  promolecular density results
     # of electrons  =     71.994671808
     EX              =    -57.402569617
     EC              =     -2.397496464
     EX+EC           =    -59.800066081
Transforming the Hamiltonian                       ... done (   0.0 sec)
Diagonalizing the Hamiltonian                      ... done (   0.0 sec)
Back transforming the eigenvectors                 ... done (   0.0 sec)
Now organizing SCF variables                       ... done
                      ------------------
                      INITIAL GUESS DONE (   0.3 sec)
                      ------------------
             **** ENERGY FILE WAS UPDATED (orca.en.tmp) ****
Finished Guess after   0.5 sec
Maximum memory used throughout the entire GUESS-calculation: 10.8 MB


           ************************************************************
           *        Program running with 6 parallel MPI-processes     *
           *              working on a common directory               *
           ************************************************************

-------------------------------------------------------------------------------------------
                                      ORCA LEAN-SCF
                              memory conserving SCF solver
-------------------------------------------------------------------------------------------

----------------------------------------D-I-I-S--------------------------------------------
Iteration    Energy (Eh)           Delta-E    RMSDP     MaxDP     DIISErr   Damp  Time(sec)
-------------------------------------------------------------------------------------------
               ***  Starting incremental Fock matrix formation  ***
    1    -423.3787612380717178     0.00e+00  7.60e-03  6.30e-02  1.48e-01  0.700   1.7
    2    -423.4757618710556812    -9.70e-02  5.45e-03  4.06e-02  7.52e-02  0.700   0.9
                               ***Turning on AO-DIIS***
    3    -423.5186148982489271    -4.29e-02  2.46e-03  1.40e-02  3.21e-02  0.700   0.9
    4    -423.5432562980093394    -2.46e-02  4.54e-03  2.29e-02  1.79e-02  0.000   0.9
    5    -423.5956967621744411    -5.24e-02  6.40e-04  4.74e-03  5.17e-03  0.000   0.9
                              *** Initializing SOSCF ***
---------------------------------------S-O-S-C-F--------------------------------------
Iteration    Energy (Eh)           Delta-E    RMSDP     MaxDP     MaxGrad    Time(sec)
--------------------------------------------------------------------------------------
    6    -423.5959635683429383    -2.67e-04  2.35e-04  1.91e-03  1.44e-03     0.8
               *** Restarting incremental Fock matrix formation ***
    7    -423.5960971970332025    -1.34e-04  1.93e-04  1.85e-03  2.01e-04     1.7
    8    -423.5960939373537144     3.26e-06  8.30e-05  1.08e-03  6.36e-04     1.3
    9    -423.5961003914790695    -6.45e-06  3.32e-05  2.36e-04  7.92e-05     1.3
   10    -423.5961003083431820     8.31e-08  1.67e-05  1.35e-04  6.16e-05     1.1
   11    -423.5961005682904101    -2.60e-07  5.37e-06  5.04e-05  1.01e-05     1.0
   12    -423.5961005699230668    -1.63e-09  3.24e-06  3.18e-05  1.32e-05     0.9
                 **** Energy Check signals convergence ****

               *****************************************************
               *                     SUCCESS                       *
               *           SCF CONVERGED AFTER  12 CYCLES          *
               *****************************************************

Recomputing exchange energy using gridx3       ... done (    2.023 sec)
Old exchange energy                            :    -11.658562463 Eh
New exchange energy                            :    -11.658598670 Eh
Exchange energy change after final integration :     -0.000036207 Eh
Total energy after final integration           :   -423.596136778 Eh
             **** ENERGY FILE WAS UPDATED (orca.en.tmp) ****

----------------
TOTAL SCF ENERGY
----------------

Total Energy       :       -423.59613677823182 Eh          -11526.63688 eV

Components:
Nuclear Repulsion  :        472.52830666424990 Eh           12858.14892 eV
Electronic Energy  :       -896.12440723523207 Eh          -24384.78482 eV
One Electron Energy:      -1508.80483680567067 Eh          -41056.66689 eV
Two Electron Energy:        612.68042957043860 Eh           16671.88207 eV

Virial components:
Potential Energy   :       -842.79768014246690 Eh          -22933.69080 eV
Kinetic Energy     :        419.20154336423508 Eh           11407.05392 eV
Virial Ratio       :          2.01048324721977

DFT components:
N(Alpha)           :       36.000001218533 electrons
N(Beta)            :       36.000001218533 electrons
N(Total)           :       72.000002437067 electrons
E(X)               :      -46.294699216647 Eh       
E(C)               :       -2.833514428471 Eh       
E(XC)              :      -49.128213645119 Eh       

---------------
SCF CONVERGENCE
---------------

  Last Energy change         ...    1.6327e-09  Tolerance :   1.0000e-08
  Last MAX-Density change    ...    3.1797e-05  Tolerance :   1.0000e-07
  Last RMS-Density change    ...    3.2397e-06  Tolerance :   5.0000e-09
  Last DIIS Error            ...    1.4403e-03  Tolerance :   5.0000e-07
  Last Orbital Gradient      ...    1.3226e-05  Tolerance :   1.0000e-05
  Last Orbital Rotation      ...    1.7173e-05  Tolerance :   1.0000e-05


----------------
ORBITAL ENERGIES
----------------

  NO   OCC          E(Eh)            E(eV) 
   0   2.0000     -19.159788      -521.3644 
   1   2.0000     -10.247881      -278.8590 
   2   2.0000     -10.244193      -278.7587 
   3   2.0000     -10.196833      -277.4699 
   4   2.0000     -10.192377      -277.3487 
   5   2.0000     -10.187930      -277.2277 
   6   2.0000     -10.186784      -277.1965 
   7   2.0000     -10.184274      -277.1282 
   8   2.0000     -10.180277      -277.0194 
   9   2.0000     -10.179227      -276.9909 
  10   2.0000      -1.056228       -28.7414 
  11   2.0000      -0.840488       -22.8709 
  12   2.0000      -0.790680       -21.5155 
  13   2.0000      -0.737012       -20.0551 
  14   2.0000      -0.730237       -19.8708 
  15   2.0000      -0.679651       -18.4942 
  16   2.0000      -0.604097       -16.4383 
  17   2.0000      -0.585637       -15.9360 
  18   2.0000      -0.559372       -15.2213 
  19   2.0000      -0.536388       -14.5959 
  20   2.0000      -0.491953       -13.3867 
  21   2.0000      -0.481004       -13.0888 
  22   2.0000      -0.470854       -12.8126 
  23   2.0000      -0.446847       -12.1593 
  24   2.0000      -0.435345       -11.8463 
  25   2.0000      -0.418629       -11.3915 
  26   2.0000      -0.415533       -11.3072 
  27   2.0000      -0.377174       -10.2634 
  28   2.0000      -0.373910       -10.1746 
  29   2.0000      -0.360468        -9.8088 
  30   2.0000      -0.351612        -9.5678 
  31   2.0000      -0.324679        -8.8350 
  32   2.0000      -0.321470        -8.7476 
  33   2.0000      -0.274192        -7.4612 
  34   2.0000      -0.252235        -6.8637 
  35   2.0000      -0.220839        -6.0093 
  36   0.0000      -0.006958        -0.1893 
  37   0.0000       0.000706         0.0192 
  38   0.0000       0.009509         0.2588 
  39   0.0000       0.064122         1.7448 
  40   0.0000       0.075498         2.0544 
  41   0.0000       0.085963         2.3392 
  42   0.0000       0.099563         2.7092 
  43   0.0000       0.109960         2.9922 
  44   0.0000       0.121194         3.2979 
  45   0.0000       0.139829         3.8049 
  46   0.0000       0.144582         3.9343 
*Only the first 10 virtual orbitals were printed.

                    ********************************
                    * MULLIKEN POPULATION ANALYSIS *
                    ********************************

-----------------------
MULLIKEN ATOMIC CHARGES
-----------------------
   0 C :    0.215361
   1 C :   -0.080525
   2 C :    0.019346
   3 C :    0.020493
   4 C :    0.016146
   5 C :   -0.013224
   6 O :   -0.317038
   7 C :    0.250371
   8 C :   -0.066459
   9 C :   -0.025641
  10 H :   -0.026339
  11 H :   -0.018638
  12 H :   -0.022459
  13 H :   -0.016063
  14 H :   -0.022855
  15 H :    0.005996
  16 H :    0.015439
  17 H :    0.028607
  18 H :    0.019725
  19 H :    0.017758
Sum of atomic charges:   -0.0000000

--------------------------------
MULLIKEN REDUCED ORBITAL CHARGES
--------------------------------
  0 C s       :     2.960546  s :     2.960546
      pz      :     0.972929  p :     2.749968
      px      :     0.798975
      py      :     0.978064
      dz2     :     0.005585  d :     0.074125
      dxz     :     0.015827
      dyz     :     0.007796
      dx2y2   :     0.022913
      dxy     :     0.022005

  1 C s       :     3.241892  s :     3.241892
      pz      :     1.065667  p :     2.806266
      px      :     0.865625
      py      :     0.874974
      dz2     :     0.002674  d :     0.032367
      dxz     :     0.004569
      dyz     :     0.003996
      dx2y2   :     0.009420
      dxy     :     0.011708

  2 C s       :     3.156379  s :     3.156379
      pz      :     0.976866  p :     2.788644
      px      :     0.947852
      py      :     0.863925
      dz2     :     0.002698  d :     0.035632
      dxz     :     0.006972
      dyz     :     0.002835
      dx2y2   :     0.012170
      dxy     :     0.010956

  3 C s       :     3.153741  s :     3.153741
      pz      :     1.020742  p :     2.791421
      px      :     0.821627
      py      :     0.949052
      dz2     :     0.002708  d :     0.034345
      dxz     :     0.002679
      dyz     :     0.005869
      dx2y2   :     0.012219
      dxy     :     0.010870

  4 C s       :     3.162978  s :     3.162978
      pz      :     0.975299  p :     2.785257
      px      :     0.914050
      py      :     0.895909
      dz2     :     0.002554  d :     0.035619
      dxz     :     0.005421
      dyz     :     0.004457
      dx2y2   :     0.010544
      dxy     :     0.012642

  5 C s       :     3.235983  s :     3.235983
      pz      :     1.028608  p :     2.744923
      px      :     0.886125
      py      :     0.830190
      dz2     :     0.002697  d :     0.032318
      dxz     :     0.005773
      dyz     :     0.002773
      dx2y2   :     0.008898
      dxy     :     0.012177

  6 O s       :     3.737903  s :     3.737903
      pz      :     1.780263  p :     4.562642
      px      :     1.203359
      py      :     1.579020
      dz2     :     0.002257  d :     0.016493
      dxz     :     0.002665
      dyz     :     0.001911
      dx2y2   :     0.003799
      dxy     :     0.005861

  7 C s       :     2.963494  s :     2.963494
      pz      :     0.998558  p :     2.724243
      px      :     0.852872
      py      :     0.872813
      dz2     :     0.009370  d :     0.061892
      dxz     :     0.007785
      dyz     :     0.014416
      dx2y2   :     0.011699
      dxy     :     0.018622

  8 C s       :     3.159255  s :     3.159255
      pz      :     0.970704  p :     2.873112
      px      :     0.949834
      py      :     0.952574
      dz2     :     0.005067  d :     0.034092
      dxz     :     0.007349
      dyz     :     0.005418
      dx2y2   :     0.007992
      dxy     :     0.008266

  9 C s       :     3.110133  s :     3.110133
      pz      :     0.976455  p :     2.888738
      px      :     0.961189
      py      :     0.951093
      dz2     :     0.004302  d :     0.026771
      dxz     :     0.005108
      dyz     :     0.004182
      dx2y2   :     0.006568
      dxy     :     0.006610

 10 H s       :     1.002814  s :     1.002814
      pz      :     0.005671  p :     0.023524
      px      :     0.007974
      py      :     0.009879

 11 H s       :     0.995914  s :     0.995914
      pz      :     0.004770  p :     0.022725
      px      :     0.004525
      py      :     0.013430

 12 H s       :     0.999601  s :     0.999601
      pz      :     0.004990  p :     0.022858
      px      :     0.014141
      py      :     0.003726

 13 H s       :     0.993378  s :     0.993378
      pz      :     0.004821  p :     0.022684
      px      :     0.008193
      py      :     0.009671

 14 H s       :     0.999965  s :     0.999965
      pz      :     0.004908  p :     0.022890
      px      :     0.004716
      py      :     0.013267

 15 H s       :     0.972716  s :     0.972716
      pz      :     0.009854  p :     0.021287
      px      :     0.002951
      py      :     0.008483

 16 H s       :     0.962007  s :     0.962007
      pz      :     0.008244  p :     0.022554
      px      :     0.003489
      py      :     0.010820

 17 H s       :     0.948098  s :     0.948098
      pz      :     0.004402  p :     0.023294
      px      :     0.012315
      py      :     0.006578

 18 H s       :     0.956951  s :     0.956951
      pz      :     0.008634  p :     0.023324
      px      :     0.004088
      py      :     0.010601

 19 H s       :     0.960736  s :     0.960736
      pz      :     0.012308  p :     0.021507
      px      :     0.003433
      py      :     0.005766



                     *******************************
                     * LOEWDIN POPULATION ANALYSIS *
                     *******************************

----------------------
LOEWDIN ATOMIC CHARGES
----------------------
   0 C :    0.053507
   1 C :   -0.080543
   2 C :   -0.016210
   3 C :   -0.050437
   4 C :   -0.016950
   5 C :   -0.047784
   6 O :   -0.101583
   7 C :    0.087213
   8 C :   -0.030780
   9 C :   -0.045121
  10 H :    0.024942
  11 H :    0.026519
  12 H :    0.024565
  13 H :    0.027503
  14 H :    0.030247
  15 H :    0.014841
  16 H :    0.030421
  17 H :    0.027633
  18 H :    0.022994
  19 H :    0.019025

-------------------------------
LOEWDIN REDUCED ORBITAL CHARGES
-------------------------------
  0 C s       :     2.839295  s :     2.839295
      pz      :     0.964073  p :     2.935184
      px      :     0.880982
      py      :     1.090129
      dz2     :     0.012068  d :     0.172014
      dxz     :     0.031444
      dyz     :     0.016097
      dx2y2   :     0.055363
      dxy     :     0.057042

  1 C s       :     2.861305  s :     2.861305
      pz      :     1.044847  p :     3.132672
      px      :     1.052855
      py      :     1.034969
      dz2     :     0.006490  d :     0.086567
      dxz     :     0.009524
      dyz     :     0.008055
      dx2y2   :     0.028695
      dxy     :     0.033803

  2 C s       :     2.861056  s :     2.861056
      pz      :     0.963470  p :     3.063302
      px      :     1.059750
      py      :     1.040081
      dz2     :     0.006373  d :     0.091852
      dxz     :     0.015316
      dyz     :     0.005358
      dx2y2   :     0.033868
      dxy     :     0.030936

  3 C s       :     2.859955  s :     2.859955
      pz      :     1.005742  p :     3.101021
      px      :     1.034978
      py      :     1.060301
      dz2     :     0.006493  d :     0.089460
      dxz     :     0.004891
      dyz     :     0.012911
      dx2y2   :     0.034094
      dxy     :     0.031071

  4 C s       :     2.861775  s :     2.861775
      pz      :     0.961143  p :     3.063585
      px      :     1.053414
      py      :     1.049028
      dz2     :     0.006072  d :     0.091590
      dxz     :     0.011373
      dyz     :     0.009214
      dx2y2   :     0.029916
      dxy     :     0.035016

  5 C s       :     2.864320  s :     2.864320
      pz      :     1.011705  p :     3.097470
      px      :     1.055197
      py      :     1.030567
      dz2     :     0.006532  d :     0.085994
      dxz     :     0.012490
      dyz     :     0.005104
      dx2y2   :     0.027210
      dxy     :     0.034657

  6 O s       :     3.436832  s :     3.436832
      pz      :     1.767467  p :     4.633585
      px      :     1.260027
      py      :     1.606091
      dz2     :     0.003895  d :     0.031167
      dxz     :     0.004917
      dyz     :     0.002320
      dx2y2   :     0.008242
      dxy     :     0.011793

  7 C s       :     2.842661  s :     2.842661
      pz      :     1.062724  p :     2.928000
      px      :     0.919569
      py      :     0.945708
      dz2     :     0.021748  d :     0.142126
      dxz     :     0.014673
      dyz     :     0.037319
      dx2y2   :     0.025663
      dxy     :     0.042722

  8 C s       :     2.882781  s :     2.882781
      pz      :     1.004778  p :     3.061268
      px      :     1.047986
      py      :     1.008504
      dz2     :     0.011583  d :     0.086731
      dxz     :     0.018259
      dyz     :     0.013307
      dx2y2   :     0.022242
      dxy     :     0.021340

  9 C s       :     2.887048  s :     2.887048
      pz      :     1.012401  p :     3.088562
      px      :     1.057159
      py      :     1.019003
      dz2     :     0.009834  d :     0.069511
      dxz     :     0.013461
      dyz     :     0.011021
      dx2y2   :     0.018473
      dxy     :     0.016722

 10 H s       :     0.904576  s :     0.904576
      pz      :     0.017642  p :     0.070483
      px      :     0.023804
      py      :     0.029038

 11 H s       :     0.907394  s :     0.907394
      pz      :     0.014186  p :     0.066086
      px      :     0.013805
      py      :     0.038096

 12 H s       :     0.908394  s :     0.908394
      pz      :     0.015118  p :     0.067041
      px      :     0.039837
      py      :     0.012086

 13 H s       :     0.906464  s :     0.906464
      pz      :     0.014365  p :     0.066033
      px      :     0.023612
      py      :     0.028056

 14 H s       :     0.901378  s :     0.901378
      pz      :     0.015430  p :     0.068375
      px      :     0.014301
      py      :     0.038644

 15 H s       :     0.921040  s :     0.921040
      pz      :     0.027750  p :     0.064119
      px      :     0.009789
      py      :     0.026580

 16 H s       :     0.902863  s :     0.902863
      pz      :     0.024076  p :     0.066717
      px      :     0.011069
      py      :     0.031571

 17 H s       :     0.905392  s :     0.905392
      pz      :     0.012992  p :     0.066975
      px      :     0.034673
      py      :     0.019309

 18 H s       :     0.910171  s :     0.910171
      pz      :     0.024850  p :     0.066835
      px      :     0.010741
      py      :     0.031243

 19 H s       :     0.916599  s :     0.916599
      pz      :     0.035713  p :     0.064376
      px      :     0.011360
      py      :     0.017303



                      *****************************
                      * MAYER POPULATION ANALYSIS *
                      *****************************

  NA   - Mulliken gross atomic population
  ZA   - Total nuclear charge
  QA   - Mulliken gross atomic charge
  VA   - Mayer's total valence
  BVA  - Mayer's bonded valence
  FA   - Mayer's free valence

  ATOM       NA         ZA         QA         VA         BVA        FA
  0 C      5.7846     6.0000     0.2154     3.9253     3.9253    -0.0000
  1 C      6.0805     6.0000    -0.0805     3.8147     3.8147    -0.0000
  2 C      5.9807     6.0000     0.0193     3.8465     3.8465    -0.0000
  3 C      5.9795     6.0000     0.0205     3.8167     3.8167    -0.0000
  4 C      5.9839     6.0000     0.0161     3.8357     3.8357     0.0000
  5 C      6.0132     6.0000    -0.0132     3.8372     3.8372    -0.0000
  6 O      8.3170     8.0000    -0.3170     2.1841     2.1841     0.0000
  7 C      5.7496     6.0000     0.2504     3.8898     3.8898    -0.0000
  8 C      6.0665     6.0000    -0.0665     4.0793     4.0793    -0.0000
  9 C      6.0256     6.0000    -0.0256     3.9638     3.9638     0.0000
 10 H      1.0263     1.0000    -0.0263     0.9929     0.9929     0.0000
 11 H      1.0186     1.0000    -0.0186     0.9771     0.9771    -0.0000
 12 H      1.0225     1.0000    -0.0225     0.9779     0.9779     0.0000
 13 H      1.0161     1.0000    -0.0161     0.9776     0.9776     0.0000
 14 H      1.0229     1.0000    -0.0229     0.9955     0.9955    -0.0000
 15 H      0.9940     1.0000     0.0060     0.9915     0.9915    -0.0000
 16 H      0.9846     1.0000     0.0154     0.9886     0.9886     0.0000
 17 H      0.9714     1.0000     0.0286     0.9754     0.9754     0.0000
 18 H      0.9803     1.0000     0.0197     0.9836     0.9836     0.0000
 19 H      0.9822     1.0000     0.0178     0.9788     0.9788    -0.0000

  Mayer bond orders larger than 0.100000
B(  0-C ,  1-C ) :   1.3262 B(  0-C ,  5-C ) :   1.3561 B(  0-C ,  6-O ) :   1.1211 
B(  1-C ,  2-C ) :   1.3501 B(  1-C , 10-H ) :   0.9878 B(  2-C ,  3-C ) :   1.4040 
B(  2-C , 11-H ) :   0.9794 B(  3-C ,  4-C ) :   1.3556 B(  3-C , 12-H ) :   0.9871 
B(  4-C ,  5-C ) :   1.4032 B(  4-C , 13-H ) :   0.9825 B(  5-C , 14-H ) :   0.9875 
B(  6-O ,  7-C ) :   0.9353 B(  7-C ,  8-C ) :   1.0332 B(  7-C , 15-H ) :   0.9406 
B(  7-C , 19-H ) :   0.9258 B(  8-C ,  9-C ) :   2.0195 B(  8-C , 16-H ) :   0.9606 
B(  9-C , 17-H ) :   0.9521 B(  9-C , 18-H ) :   0.9523 

-------
TIMINGS
-------

Total SCF time: 0 days 0 hours 0 min 16 sec 

Total time                  ....      16.467 sec
Sum of individual times     ....      15.570 sec  ( 94.6%)

SCF preparation             ....       0.209 sec  (  1.3%)
Fock matrix formation       ....      14.953 sec  ( 90.8%)
  Startup                   ....       0.007 sec  (  0.0% of F)
  Split-RI-J                ....       1.502 sec  ( 10.0% of F)
  Chain of spheres X        ....      11.624 sec  ( 77.7% of F)
  XC integration            ....       2.458 sec  ( 16.4% of F)
    XC Preparation          ....       0.000 sec  (  0.0% of XC)
    Basis function eval.    ....       0.761 sec  ( 31.0% of XC)
    Density eval.           ....       0.470 sec  ( 19.1% of XC)
    XC-Functional eval.     ....       0.125 sec  (  5.1% of XC)
    XC-Potential eval.      ....       0.536 sec  ( 21.8% of XC)
Diagonalization             ....       0.000 sec  (  0.0%)
Density matrix formation    ....       0.047 sec  (  0.3%)
Total Energy calculation    ....       0.026 sec  (  0.2%)
Population analysis         ....       0.029 sec  (  0.2%)
Orbital Transformation      ....       0.032 sec  (  0.2%)
Orbital Orthonormalization  ....       0.000 sec  (  0.0%)
DIIS solution               ....       0.160 sec  (  1.0%)
SOSCF solution              ....       0.115 sec  (  0.7%)
Finished LeanSCF after  16.5 sec

Maximum memory used throughout the entire LEANSCF-calculation: 16.8 MB


-------------------------------------------------------------------------------
                          DFT DISPERSION CORRECTION                            
                                                                               
                              DFTD3 V3.1  Rev 1                                
                          USING Becke-Johnson damping                          
-------------------------------------------------------------------------------
The B3LYP functional is recognized
Active option DFTDOPT                   ...         4   

molecular C6(AA) [au] = 4253.757626 


            DFT-D V3
 parameters
 s6 scaling factor         :     1.0000 
 a1 scaling factor         :     0.3981 
 s8 scaling factor         :     1.9889 
 a2 scaling factor         :     4.4211 
 ad hoc parameters k1-k3   :    16.0000     1.3333    -4.0000 

 Edisp/kcal,au: -20.528832161713  -0.032714772956 
 E6   /kcal   :  -9.685867421 
 E8   /kcal   : -10.842964741 
 % E8         :  52.818224903 

-------------------------   ----------------
Dispersion correction           -0.032714773
-------------------------   ----------------


-------------------------   --------------------
FINAL SINGLE POINT ENERGY      -423.628851551188
-------------------------   --------------------



           ************************************************************
           *        Program running with 6 parallel MPI-processes     *
           *              working on a common directory               *
           ************************************************************
------------------------------------------------------------------------------
                         ORCA SCF GRADIENT CALCULATION
------------------------------------------------------------------------------

Nuc. rep. gradient        (SHARK) ... done (  0.0 sec)
HCore & Overlap gradient  (SHARK) ... done (  0.1 sec)
Split-RIJ-J gradient      (SHARK) ... done (  0.5 sec)
done (  8.3 sec)
XC gradient                       ... done (  1.5 sec)
Dispersion correction             ... done (  0.0 sec)

-------------------
DISPERSION GRADIENT
-------------------

   1   C   :    0.000173944   -0.000076267    0.000024738
   2   C   :    0.000233187    0.000274325   -0.000016835
   3   C   :    0.000253681    0.000272823   -0.000015422
   4   C   :    0.000336732    0.000056154    0.000017518
   5   C   :    0.000247278   -0.000209573    0.000045674
   6   C   :    0.000184263   -0.000372185    0.000065775
   7   O   :   -0.000114374   -0.000171493   -0.000012806
   8   C   :   -0.000211798    0.000051585   -0.000086598
   9   C   :   -0.000444802   -0.000094052   -0.000072296
  10   C   :   -0.000467190   -0.000012632    0.000108781
  11   H   :   -0.000015968    0.000294565   -0.000039555
  12   H   :    0.000108419    0.000261742   -0.000025930
  13   H   :    0.000270326    0.000055282    0.000012489
  14   H   :    0.000184682   -0.000203620    0.000039974
  15   H   :   -0.000010083   -0.000299952    0.000039500
  16   H   :   -0.000128767    0.000155196    0.000078017
  17   H   :   -0.000143582   -0.000139620   -0.000110394
  18   H   :   -0.000159910   -0.000020161    0.000035022
  19   H   :   -0.000187315    0.000062633    0.000111275
  20   H   :   -0.000108725    0.000115248   -0.000198927

Difference to translation invariance:
           :    0.0000000000    0.0000000000    0.0000000000

Difference to rotation invariance:
           :   -0.0000000000   -0.0000000000    0.0000000000

Norm of the Dispersion gradient    ...    0.0013795702
RMS gradient                       ...    0.0001781017
MAX gradient                       ...    0.0004671897

------------------
CARTESIAN GRADIENT
------------------

   1   C   :   -0.000034254   -0.000051858    0.000049032
   2   C   :    0.000026192    0.000128723    0.000162730
   3   C   :   -0.000011125    0.000020131    0.000017359
   4   C   :   -0.000065595   -0.000015454   -0.000018929
   5   C   :    0.000055950   -0.000098992   -0.000072291
   6   C   :    0.000007693    0.000001957   -0.000035312
   7   O   :    0.000067600   -0.000002385   -0.000140900
   8   C   :    0.000090052   -0.000220290    0.000059261
   9   C   :   -0.000021929    0.000131512    0.000034338
  10   C   :   -0.000015403    0.000023340   -0.000009055
  11   H   :   -0.000073979    0.000001663   -0.000026631
  12   H   :    0.000001782    0.000034279   -0.000063781
  13   H   :    0.000043218    0.000001547    0.000035658
  14   H   :    0.000020585   -0.000005349    0.000032020
  15   H   :    0.000031598   -0.000013246    0.000048442
  16   H   :   -0.000092782    0.000126992   -0.000049346
  17   H   :   -0.000066978   -0.000095096   -0.000081949
  18   H   :    0.000030227   -0.000012799    0.000038356
  19   H   :   -0.000038166    0.000036648    0.000041697
  20   H   :    0.000045315    0.000008677   -0.000020699

Difference to translation invariance:
           :   -0.0000000000   -0.0000000000    0.0000000000

Difference to rotation invariance:
           :   -0.0001259841   -0.0000714280    0.0001498354

Norm of the Cartesian gradient     ...    0.0005061882
RMS gradient                       ...    0.0000653486
MAX gradient                       ...    0.0002202898

-------
TIMINGS
-------

Total SCF gradient time     ....       10.352 sec

Densities                   ....       0.001 sec  (  0.0%)
One electron gradient       ....       0.089 sec  (  0.9%)
RI-J Coulomb gradient       ....       0.488 sec  (  4.7%)
COSX gradient               ....       8.272 sec  ( 79.9%)
XC gradient                 ....       1.453 sec  ( 14.0%)

Maximum memory used throughout the entire SCFGRAD-calculation: 30.8 MB


           ************************************************************
           *        Program running with 6 parallel MPI-processes     *
           *              working on a common directory               *
           ************************************************************

------------------------------------------------------------------------------
                              ORCA PROPERTY CALCULATIONS
------------------------------------------------------------------------------

GBWName                                 ... orca.gbw
Number of atoms                         ...     20
Number of basis functions               ...    190
Max core memory                         ...   4096 MB

Electric properties:
Dipole moment                           ... YES
Quadrupole moment                       ...  NO
Static polarizability (Dipole/Dipole)   ...  NO
Static polarizability (Dipole/Quad.)    ...  NO
Static polarizability (Quad./Quad.)     ...  NO
Static polarizability (Velocity)        ...  NO
Static hyperpolarizability              ...  NO

Atomic electric properties:
Dipole moment                           ...  NO
Quadrupole moment                       ...  NO
Static polarizability                   ...  NO

Choice of electric origin               ... Center of mass
Position of electric origin             ...     0.028979     0.017478    -0.108691

General magnetic properties:
Magnetizability                         ...  NO

EPR properties:
g-Tensor (aka g-matrix)                 ...  NO
Zero-Field splitting spin-orbit         ...  NO
Zero-field splitting spin-spin          ...  NO
Hyperfine couplings                     ...  NO (   0 nuclei)
Quadrupole couplings                    ...  NO (   0 nuclei)
Contact density                         ...  NO (   0 nuclei)

NMR properties:
Chemical shifts                         ...  NO (   0 nuclei)
Spin-rotation constants                 ...  NO (   0 nuclei)
Spin-spin couplings                     ...  NO (   0 nuclei,    0 pairs)

Choice of magnetic origin               ... GIAO
Position of magnetic origin             ...     0.000000     0.000000     0.000000

Properties with geometric perturbations:
SCF Hessian                             ...  NO
IR spectrum                             ...  NO
VCD spectrum                            ...  NO
X-ray spectroscopy properties:
SCF XES/XAS/RIXS spectra                ...  NO

SCF SOC stabilization energy            ...  NO
Diagonal Born-Oppenheimer correction    ...  NO

-------------
DIPOLE MOMENT
-------------

Method             : SCF
Type of density    : Electron Density
Multiplicity       :   1
Irrep              :   0
Energy             :  -423.5961367782318234 Eh
Basis              : AO
                                X                 Y                 Z
Electronic contribution:      4.130026101      -1.805669252      -0.055454327
Nuclear contribution   :     -4.441483087       2.176676985      -0.048438262
                        -----------------------------------------
Total Dipole Moment    :     -0.311456985       0.371007733      -0.103892589
                        -----------------------------------------
Magnitude (a.u.)       :      0.495424930
Magnitude (Debye)      :      1.259270096



--------------------
Rotational spectrum 
--------------------
 
Rotational constants in cm-1:             0.152483             0.020767             0.018642 
Rotational constants in MHz :          4571.327236           622.569041           558.875256 

Dipole components along the rotational axes: 
x,y,z [a.u.] :     0.307415     0.383665    -0.061178 
x,y,z [Debye]:     0.781388     0.975199    -0.155501 

 

Dipole moment calculation done in   0.0 sec 

Maximum memory used throughout the entire PROP-calculation: 9.2 MB

--------------------------------
SUGGESTED CITATIONS FOR THIS RUN
--------------------------------

Below you find a list of papers that are relevant to this ORCA run
We neither can nor want to force you to cite these papers, but we appreciate if you do
You receive ORCA, which is the product of decades of hard work by many enthusiastic individuals, for free
The only thing we kindly ask in return is that you cite our papers,
We deeply appreciate it, if you show your appreciation for ORCA by not just citing the generic ORCA reference.

Please note that relegating all ORCA citations to the supporting information does *not* help us.
SI sections are not indexed - citations you put there will not count into any citation statistics
But we need these citations in order to attract the funding resources that allow us to do what we are doing

Therefore, if you are a happy ORCA user, please consider citing a few of the papers listed below in the main body of your paper

In addition to the list printed below, the program has created the file orca.bibtex that contains the list in bibtex format
You can import this file easily into all common literature databanks and citation aid programs


List of essential papers. We consider these as the minimum necessary citations

  1. Neese, F.
     Software update: the ORCA program system, version 6.0
     WIRES Comput. Molec. Sci. 2025 15(1), e70019
     doi.org/10.1002/wcms.7019

List of papers to cite with high priority. The work reported in these papers was absolutely
necessary for this run to complete.
Our perspective: the developers of density functionals and basis sets usually get cited in chemistry papers
Good! But without the algorithms to do something with them, the functionals or basis sets would not do anything.
Hence, in our opinion, the algorithm design and method developments papers are equally worthy of getting cited

  1. Neese, F.
     An improvement of the resolution of the identity approximation for the formation of the Coulomb matrix
     J. Comp. Chem. 2003 24(14), 1740-1747
     doi.org/10.1002/jcc.10318
  2. Neese, F.; Wennmohs, F.; Hansen, A.; Becker, U.
     Efficient, approximate and parallel Hartree-Fock and hybrid DFT calculations. A 'chain-of-spheres' algorithm for the Hartree-Fock exchange
     Chem. Phys. 2009 356(1-3), 98-109
     doi.org/10.1016/j.chemphys.2008.10.036
  3. Grimme, S.; Antony, J.; Ehrlich, S.; Krieg, H.
     A consistent and accurate ab initio parametrization of density functional dispersion correction (DFT-D) for the 94 elements H-Pu
     J. Chem. Phys. 2010 132 , 154104
     doi.org/10.1063/1.3382344
  4. Grimme, S.; Ehrlich, S.; Goerigk, L.
     Effect of the damping function in dispersion corrected density functional theory
     J. Comput. Chem. 2011 32(7), 1456-1465
     doi.org/10.1002/jcc.21759
  5. Helmich-Paris, B.; de Souza, B.; Neese, F.; Izsák, R.
     An improved chain of spheres for exchange algorithm
     J. Chem. Phys. 2021 155(10), 104109
     doi.org/10.1063/5.0058766
  6. Neese, F.
     The SHARK Integral Generation and Digestion System
     J. Comp. Chem. 2022 44(3), 381
     doi.org/10.1002/jcc.26942

List of suggested additional citations. These are papers that are important in the 'surrounding' of 
of this run, or papers that preceded the highly important papers. If you like your results we are grateful for a citation.

  1. Izsak, R.; Neese, F.
     An overlap fitted chain of spheres exchange method
     J. Chem. Phys. 2011 135 , 144105
     doi.org/10.1063/1.3646921
  2. Izsak, R.; Hansen, A.; Neese, F.
     The resolution of identity and chain of spheres approximations for the LPNO-CCSD singles Fock term
     Molec. Phys. 2012 110 , 2413-2417
     doi.org/10.1080/00268976.2012.687466
  3. Neese, F.
     The ORCA program system
     WIRES Comput. Molec. Sci. 2012 2(1), 73-78
     doi.org/10.1002/wcms.81
  4. Izsak, R.; Neese, F.; Klopper, W.
     Robust fitting techniques in the chain of spheres approximation to the Fock exchange: The role of the complementary space
     J. Chem. Phys. 2013 139 , 
     doi.org/10.1063/1.4819264
  5. Neese, F.
     Software update: the ORCA program system, version 4.0
     WIRES Comput. Molec. Sci. 2018 8(1), 1-6
     doi.org/10.1002/wcms.1327
  6. Neese, F.; Wennmohs, F.; Becker, U.; Riplinger, C.
     The ORCA quantum chemistry program package
     J. Chem. Phys. 2020 152(22), 224108
     doi.org/10.1063/5.0004608
  7. Neese, F.
     Software update: The ORCA program system—Version 5.0
     WIRES Comput. Molec. Sci. 2022 12(1), e1606
     doi.org/10.1002/wcms.1606

List of optional additional citations

  1. Neese, F.
     Approximate second-order SCF convergence for spin unrestricted wavefunctions
     Chem. Phys. Lett. 2000 325(1-3), 93-98
     doi.org/10.1016/s0009-2614(00)00662-x

Timings for individual modules:

Sum of individual times          ...       31.009 sec (=   0.517 min)
Startup calculation              ...        2.041 sec (=   0.034 min)   6.6 %
SCF iterations                   ...       17.630 sec (=   0.294 min)  56.9 %
Property calculations            ...        0.470 sec (=   0.008 min)   1.5 %
SCF Gradient evaluation          ...       10.869 sec (=   0.181 min)  35.0 %
                             ****ORCA TERMINATED NORMALLY****
TOTAL RUN TIME: 0 days 0 hours 0 minutes 31 seconds 579 msec
