
                                 *****************
                                 * O   R   C   A *
                                 *****************

                                            #,                                       
                                            ###                                      
                                            ####                                     
                                            #####                                    
                                            ######                                   
                                           ########,                                 
                                     ,,################,,,,,                         
                               ,,#################################,,                 
                          ,,##########################################,,             
                       ,#########################################, ''#####,          
                    ,#############################################,,   '####,        
                  ,##################################################,,,,####,       
                ,###########''''           ''''###############################       
              ,#####''   ,,,,##########,,,,          '''####'''          '####       
            ,##' ,,,,###########################,,,                        '##       
           ' ,,###''''                  '''############,,,                           
         ,,##''                                '''############,,,,        ,,,,,,###''
      ,#''                                            '''#######################'''  
     '                                                          ''''####''''         
             ,#######,   #######,   ,#######,      ##                                
            ,#'     '#,  ##    ##  ,#'     '#,    #''#        ,####,    ,#,          
            ##       ##  ##   ,#'  ##            #'  '#       #'       ,# #          
            ##       ##  #######   ##           ,######,      #####,      #          
            '#,     ,#'  ##    ##  '#,     ,#' ,#      #,     #,   #      #          
             '#######'   ##     ##  '#######'  #'      '#     '####' #    #          



                #########################################################
                #                        -***-                          #
                #          Department of theory and spectroscopy        #
                #                                                       #
                #                      Frank Neese                      #
                #                                                       #
                #     Directorship, Architecture, Infrastructure        #
                #                    SHARK, DRIVERS                     #
                #        Core code/Algorithms in most modules           #
                #                                                       #
                #        Max Planck Institute fuer Kohlenforschung      #
                #                Kaiser Wilhelm Platz 1                 #
                #                 D-45470 Muelheim/Ruhr                 #
                #                      Germany                          #
                #                                                       #
                #                  All rights reserved                  #
                #                        -***-                          #
                #########################################################


                         Program Version 6.1.0  -  RELEASE   -
                                (GIT: $679e74b$)
                          ($2025-06-10 18:02:51 +0200$)


 With contributions from (in alphabetic order):
[Max-Planck-Institut fuer Kohlenforschung]                               
  Daniel Aravena         : Magnetic Suceptibility                        
  Michael Atanasov       : Ab Initio Ligand Field Theory (pilot matlab implementation)
  Alexander A. Auer      : GIAO ZORA, VPT2 properties, NMR spectrum      
  Ute Becker             : All parallelization in ORCA, NUMFREQ, NUMCALC 
  Giovanni Bistoni       : ED, misc. LED, open-shell LED, HFLD           
  Dmytro Bykov           : pre 5.0 version of the SCF Hessian            
  Marcos Casanova-Páez   : Triplet and SCS-CIS(D). UHF-(DLPNO)-IP/EA/STEOM-CCSD. UHF-CVS-IP/STEOM-CCSD   
  Vijay G. Chilkuri      : MRCI spin determinant printing, contributions to CSF-ICE 
  Pauline Colinet        : FMM embedding                                 
  Dipayan Datta          : RHF DLPNO-CCSD density                        
  Achintya Kumar Dutta   : EOM-CC, STEOM-CC                              
  Nicolas Foglia         : Exact transition moments, OPA infrastructure, MCD improvements    
  Dmitry Ganyushin       : Spin-Orbit,Spin-Spin,Magnetic field MRCI      
  Miquel Garcia-Rates    : C-PCM and meta-GGA Hessian, CCSD/C-PCM, Gaussian charge scheme 
  Tiago L. C. Gouveia    : GS-ROHF, GS-ROCIS                             
  Yang Guo               : DLPNO-NEVPT2, F12-NEVPT2, CIM, IAO-localization        
  Andreas Hansen         : Spin unrestricted coupled pair/coupled cluster methods 
  Ingolf Harden          : AUTO-CI MPn and infrastructure                
  Benjamin Helmich-Paris : MC-RPA, TRAH-(SCF,CASSCF), AVAS, COSX integrals, SCF dyn. polar., MC-PDFT, srDFT 
  Lee Huntington         : MR-EOM, pCC                                   
  Robert Izsak           : Overlap fitted RIJCOSX, COSX-SCS-MP3, EOM     
  Riya Kayal             : Wick's Theorem for AUTO-CI, AUTO-CI UHF-CCSDT 
  Emily Kempfer          : AUTO-CI RHF CISDT and CCSDT, approximate NEVPT4
  Christian Kollmar      : KDIIS, OOCD, Brueckner-CCSD(T), CCSD density, CASPT2, CASPT2-K, improved NEVPT2 
  Axel Koslowski         : Symmetry handling                             
  Simone Kossmann        : meta-GGA functionals, TD-DFT gradient, OOMP2, (MP2 Hessian; deprecated post 5.0) 
  Lucas Lang             : DCDCAS, Hyperfine gauge corrections, ICE-SOC+SSC
  Marvin Lechner         : AUTO-CI (C++ implementation), FIC-MRCC        
  Spencer Leger          : CASSCF response                               
  Dagmar Lenk            : GEPOL surface, SMD, ORCA-2-JSON               
  Dimitrios Liakos       : Extrapolation schemes; Compound Job, Property file
  Dimitrios Manganas     : Further ROCIS development; embedding schemes. LFT, Crystal Embedding 
  Dimitrios Pantazis     : SARC Basis sets                               
  Anastasios Papadopoulos: AUTO-CI, single reference methods and gradients 
  Taras Petrenko         : pre 6.0 DFT Hessian and TD-DFT gradient,  ECA, NRVS 
  Petra Pikulova         : Analytic Raman intensities                    
  Peter Pinski           : DLPNO-MP2, DLPNO-MP2 Gradient                 
  Shashank Vittal Rao    : ES-AILFT, MagRelax                            
  Christoph Reimann      : Effective Core Potentials                     
  Marius Retegan         : Local ZFS, SOC                                
  Christoph Riplinger    : Optimizer, TS searches, QM/MM, DLPNO-CCSD(T), (RO)-DLPNO pert. Triples 
  Michael Roemelt        : Original ROCIS implementation, recursive CI coupling coefficients
  Masaaki Saitow         : Open-shell DLPNO-CCSD energy and density      
  Barbara Sandhoefer     : DKH picture change effects                    
  Yorick L. A. Schmerwitz: GMF and freeze-and-release deltaSCF, NEB S-IDPP initial path                    
  Kantharuban Sivalingam : CASSCF convergence/infrastructure, NEVPT2, NEVPT3, NEVPT4(SD), FIC-MRCI and CEPA variants
  Bernardo de Souza      : ESD, SOC TD-DFT                               
  Georgi L. Stoychev     : AutoAux, RI-MP2 NMR, DLPNO-MP2 response, X2C  
  Van Anh Tran           : RI-MP2 g-tensors                              
  Willem Van den Heuvel  : Paramagnetic NMR                              
  Zikuan Wang            : NOTCH, Electric field optimization            
  Frank Wennmohs         : Technical directorship and infrastructure     
  Hang Xu                : AUTO-CI-Response properties                   
                                                                         
[FACCTs GmbH]                                                            
  Markus Bursch, Nicolas Foglia, Miquel Garcia-Rates, Ingolf Harden, Hagen Neugebauer, Anastasios Papadopoulos, 
  Christoph Riplinger, Bernardo de Souza, Georgi L. Stoychev                                                    
                                                                 
  APM, various basis sets, CI-OPT, improved COSX, DLPNO-Multilevel,           
  DOCKER, DRACO, updates on ESD, Fragmentator, GOAT, IRC, LR-CPCM, L-BFGS, MBIS, meta-GGA TD-DFT gradient, ML-optimized integration grids, 
  MM, NACMEs, nearIR, NEB, NEB-TS, NL-DFT gradient (VV10), 2- and 3-layer-ONIOM, interface openCOSMO-RS, QMMM,   
  Crystal-QMMM, RESP, rigid body optimization, SF, symmetry and pop. for TD-DFT, various functionals, SOLVATOR                                   
                                                                         
[Other institutions]                                                     
  V. Asgeirsson          : NEB                                           
  Christoph Bannwarth    : sTDA-DFT, sTD-DFT, PBEh-3c, B97-3c, D3        
  Giovanni Bistoni       : ETS/NOCV, ADLD/ADEX, COVALED                  
  Martin Brehm           : Molecular dynamics                            
  Ronald Cardenas        : ETS/NOCV                                      
  Martina Colucci        : COVALED                                       
  Sebastian Ehlert       : rSCAN, r2SCAN, r2SCAN-3c, D4, dhf basis sets  
  Marvin Friede          : D4 for Fr, Ra, Ac-Lr                          
  Lars Goerigk           : TD-DFT with DH, B97 family of functionals     
  Stefan Grimme          : VdW corrections, initial TS optimization, DFT functionals, gCP, sTDA/sTD-DF 
  Waldemar Hujo          : DFT-NL                                        
  H. Jonsson             : NEB                                           
  Holger Kruse           : gCP                                           
  Marcel Mueller         : wB97X-3c, vDZP basis set                      
  Hagen Neugebauer       : wr2SCAN, Native XTB                           
  Gianluca Regni         : ADLD/ADEX                                     
  Tobias Risthaus        : pre 6.0 range-separated hybrid DFT and stability analysis
  Lukas Wittmann         : regularized MP2, r2SCAN double-hybrids, wr2SCAN        
                                                                         
We gratefully acknowledge several colleagues who have allowed us to      
interface, adapt or use parts of their codes:                            
  Ed Valeev, F. Pavosevic, A. Kumar             : LibInt (2-el integral package), F12 methods 
  Garnet Chan, S. Sharma, J. Yang, R. Olivares  : DMRG                   
  Ulf Ekstrom                                   : XCFun DFT Library      
  Mihaly Kallay                                 : mrcc  (arbitrary order and MRCC methods)
  Frank Weinhold                                : gennbo (NPA and NBO analysis)           
  Simon Mueller                                 : openCOSMO-RS                            
  Christopher J. Cramer and Donald G. Truhlar   : smd solvation model                     
  S Lehtola, MJT Oliveira, MAL Marques          : LibXC Library                           
  Liviu Ungur et al                             : ANISO software                          


 Your calculation uses the libint2 library for the computation of 2-el integrals
 For citations please refer to: http://libint.valeyev.net

 Your ORCA version has been built with support for libXC version: 7.0.0
 For citations please refer to: https://libxc.gitlab.io

 This ORCA versions uses:
   CBLAS   interface :  Fast vector & matrix operations
   LAPACKE interface :  Fast linear algebra routines
   SCALAPACK package :  Parallel linear algebra routines
   Shared memory     :  Shared parallel matrices
   BLAS/LAPACK       :  OpenBLAS 0.3.29  USE64BITINT DYNAMIC_ARCH NO_AFFINITY Zen SINGLE_THREADED
        Core in use  :  Zen
   Copyright (c) 2011-2014, The OpenBLAS Project


  ***********************************
  * Starting time: Wed Sep 10 13:34:05 2025
  * Host name:     wyk-Server
  * Process ID:    2279788
  * Working dir.:  /home/wyk/Documents/code/openQDC/MGMR/singlepointcalc/25/prod
  ***********************************

Your calculation utilizes the atom-pairwise dispersion correction
with the Becke-Johnson damping scheme (D3BJ)


Warning: RI is on but no J-basis has been assigned. Assigning Def2/J (nothing to worry about!)
================================================================================

----- Orbital basis set information -----
Your calculation utilizes the basis: def2-SVP
   F. Weigend and R. Ahlrichs, Phys. Chem. Chem. Phys. 7, 3297 (2005).

----- AuxJ basis set information -----
Your calculation utilizes the auxiliary basis: def2/J
   H-Rn: F. Weigend, Phys. Chem. Chem. Phys. 8, 1057 (2006).
   Fr-Lr: K. Eichkorn, F. Weigend, O. Treutler, R. Ahlrichs; Theor. Chem. Acc. 97, 119 (1997).

================================================================================
                                        WARNINGS
                       Please study these warnings very carefully!
================================================================================


================================================================================
                                       INPUT FILE
================================================================================
NAME = orca.inp
|  1> ! B3LYP def2-SVP d3 EnGrad 
|  2> %pal nprocs 6 end 
|  3> *xyz 0 1 
|  4> H   -0.26281030273976 1.54722130761675 -0.89739861859061
|  5> C   -0.52758304145361 1.01502254060587 0.03485228373817
|  6> C   0.54231465768767 -0.01453828893498 0.42507719556563
|  7> H   -0.83210198253402 1.74634919855661 0.80358484764816
|  8> H   0.76590363702669 -0.02618956351151 1.5083500843261
|  9> O   1.70697275040428 0.07375838855429 -0.34783431916519
| 10> H   2.35175506417925 -0.56324754148379 -0.01439500223457
| 11> O   -1.51043094534456 -0.01297503629886 -0.16727266093041
| 12> C   -0.53400504476799 -1.04846376150515 0.0163324252003
| 13> H   -0.84433779694394 -1.78873623763449 0.77557235030002
| 14> H   -0.27723599551404 -1.56814000596475 -0.92617758585761
| 15> *
| 16> 
| 17>                          ****END OF INPUT****
================================================================================

                     *******************************
                     * Energy+Gradient Calculation *
                     *******************************

---------------------------------
CARTESIAN COORDINATES (ANGSTROEM)
---------------------------------
  H     -0.262810    1.547221   -0.897399
  C     -0.527583    1.015023    0.034852
  C      0.542315   -0.014538    0.425077
  H     -0.832102    1.746349    0.803585
  H      0.765904   -0.026190    1.508350
  O      1.706973    0.073758   -0.347834
  H      2.351755   -0.563248   -0.014395
  O     -1.510431   -0.012975   -0.167273
  C     -0.534005   -1.048464    0.016332
  H     -0.844338   -1.788736    0.775572
  H     -0.277236   -1.568140   -0.926178

----------------------------
CARTESIAN COORDINATES (A.U.)
----------------------------
  NO LB      ZA    FRAG     MASS         X           Y           Z
   0 H     1.0000    0     1.008   -0.496639    2.923825   -1.695838
   1 C     6.0000    0    12.011   -0.996987    1.918115    0.065861
   2 C     6.0000    0    12.011    1.024826   -0.027473    0.803279
   3 H     1.0000    0     1.008   -1.572445    3.300122    1.518555
   4 H     1.0000    0     1.008    1.447348   -0.049491    2.850369
   5 O     8.0000    0    15.999    3.225711    0.139383   -0.657312
   6 H     1.0000    0     1.008    4.444173   -1.064384   -0.027203
   7 O     8.0000    0    15.999   -2.854301   -0.024519   -0.316100
   8 C     6.0000    0    12.011   -1.009123   -1.981309    0.030864
   9 H     1.0000    0     1.008   -1.595567   -3.380222    1.465619
  10 H     1.0000    0     1.008   -0.523900   -2.963355   -1.750222

--------------------------------
INTERNAL COORDINATES (ANGSTROEM)
--------------------------------
 H      0   0   0     0.000000000000     0.00000000     0.00000000
 C      1   0   0     1.105636412057     0.00000000     0.00000000
 C      2   1   0     1.535236812405   111.72999542     0.00000000
 H      2   1   3     1.103866033956   109.53317364   131.78148519
 H      3   2   1     1.106168131617   113.38105498   138.18296737
 O      3   2   1     1.400577375867   113.38822310     9.15142214
 H      6   3   2     0.965765274348   108.84835159   176.63332156
 O      2   1   3     1.436531765595   112.93371015   258.06442522
 C      8   2   1     1.435045388481    91.88169005   107.67524390
 H      9   8   2     1.104877830284   112.35002290   127.47902103
 H      9   8   2     1.106489432690   112.81815215   252.01545214

---------------------------
INTERNAL COORDINATES (A.U.)
---------------------------
 H      0   0   0     0.000000000000     0.00000000     0.00000000
 C      1   0   0     2.089350022479     0.00000000     0.00000000
 C      2   1   0     2.901177126160   111.72999542     0.00000000
 H      2   1   3     2.086004492715   109.53317364   131.78148519
 H      3   2   1     2.090354826827   113.38105498   138.18296737
 O      3   2   1     2.646707669754   113.38822310     9.15142214
 H      6   3   2     1.825031878168   108.84835159   176.63332156
 O      2   1   3     2.714651619652   112.93371015   258.06442522
 C      8   2   1     2.711842773975    91.88169005   107.67524390
 H      9   8   2     2.087916510678   112.35002290   127.47902103
 H      9   8   2     2.090961997862   112.81815215   252.01545214

---------------------
BASIS SET INFORMATION
---------------------
There are 3 groups of distinct atoms

 Group   1 Type H   : 4s1p contracted to 2s1p pattern {31/1}
 Group   2 Type C   : 7s4p1d contracted to 3s2p1d pattern {511/31/1}
 Group   3 Type O   : 7s4p1d contracted to 3s2p1d pattern {511/31/1}

Atom   0H    basis set group =>   1
Atom   1C    basis set group =>   2
Atom   2C    basis set group =>   2
Atom   3H    basis set group =>   1
Atom   4H    basis set group =>   1
Atom   5O    basis set group =>   3
Atom   6H    basis set group =>   1
Atom   7O    basis set group =>   3
Atom   8C    basis set group =>   2
Atom   9H    basis set group =>   1
Atom  10H    basis set group =>   1
---------------------------------
AUXILIARY/J BASIS SET INFORMATION
---------------------------------
There are 3 groups of distinct atoms

 Group   1 Type H   : 5s2p1d contracted to 3s1p1d pattern {311/2/1}
 Group   2 Type C   : 12s5p4d2f1g contracted to 6s4p3d1f1g pattern {711111/2111/211/2/1}
 Group   3 Type O   : 12s5p4d2f1g contracted to 6s4p3d1f1g pattern {711111/2111/211/2/1}

Atom   0H    basis set group =>   1
Atom   1C    basis set group =>   2
Atom   2C    basis set group =>   2
Atom   3H    basis set group =>   1
Atom   4H    basis set group =>   1
Atom   5O    basis set group =>   3
Atom   6H    basis set group =>   1
Atom   7O    basis set group =>   3
Atom   8C    basis set group =>   2
Atom   9H    basis set group =>   1
Atom  10H    basis set group =>   1


           ************************************************************
           *        Program running with 6 parallel MPI-processes     *
           *              working on a common directory               *
           ************************************************************
------------------------------------------------------------------------------
                             ORCA STARTUP CALCULATIONS
                           -- RI-GTO INTEGRALS CHOSEN --
------------------------------------------------------------------------------
------------------------------------------------------------------------------
                   ___                                                        
                  /   \      - P O W E R E D   B Y -                         
                 /     \                                                     
                 |  |  |   _    _      __       _____    __    __             
                 |  |  |  | |  | |    /  \     |  _  \  |  |  /  |          
                  \  \/   | |  | |   /    \    | | | |  |  | /  /          
                 / \  \   | |__| |  /  /\  \   | |_| |  |  |/  /          
                |  |  |   |  __  | /  /__\  \  |    /   |      \           
                |  |  |   | |  | | |   __   |  |    \   |  |\   \          
                \     /   | |  | | |  |  |  |  | |\  \  |  | \   \       
                 \___/    |_|  |_| |__|  |__|  |_| \__\ |__|  \__/        
                                                                              
                      - O R C A' S   B I G   F R I E N D -                    
                                      &                                       
                       - I N T E G R A L  F E E D E R -                       
                                                                              
 v1 FN, 2020, v2 2021, v3 2022-2024                                           
------------------------------------------------------------------------------


----------------------
SHARK INTEGRAL PACKAGE
----------------------

Number of atoms                             ...     11
Number of basis functions                   ...    100
Number of shells                            ...     48
Maximum angular momentum                    ...      2
Integral batch strategy                     ... SHARK/LIBINT Hybrid
RI-J (if used) integral strategy            ... SPLIT-RIJ (Revised 2003 algorithm where possible)
Printlevel                                  ...      1
Contraction scheme used                     ... SEGMENTED contraction
Prescreening option                         ... SCHWARTZ
   Thresh                                   ... 2.500e-11
   Tcut                                     ... 2.500e-12
   Tpresel                                  ... 2.500e-12 
Coulomb Range Separation                    ... NOT USED
Exchange Range Separation                   ... NOT USED
Multipole approximations                    ... NOT USED
Finite Nucleus Model                        ... NOT USED
CABS basis                                  ... NOT available
Auxiliary Coulomb fitting basis             ... AVAILABLE
   # of basis functions in Aux-J            ...    311
   # of shells in Aux-J                     ...    105
   Maximum angular momentum in Aux-J        ...      4
Auxiliary J/K fitting basis                 ... NOT available
Auxiliary Correlation fitting basis         ... NOT available
Auxiliary 'external' fitting basis          ... NOT available

Checking pre-screening integrals            ... done (  0.0 sec) Dimension = 48
   => SHARK Basis and OBASIS are compatible. Storing Pre-screening
Shell pair information
Shell pair cut-off parameter TPreSel        ...   2.5e-12
Total number of shell pairs                 ...      1176
Shell pairs after pre-screening             ...      1163
Total number of primitive shell pairs       ...      4178
Primitive shell pairs kept                  ...      3351
          la=0 lb=0:    371 shell pairs
          la=1 lb=0:    428 shell pairs
          la=1 lb=1:    136 shell pairs
          la=2 lb=0:    133 shell pairs
          la=2 lb=1:     80 shell pairs
          la=2 lb=2:     15 shell pairs

Checking whether 4 symmetric matrices of dimension 100 fit in memory
:Max Core in MB      =   4096.00
 MB in use           =      4.79
 MB left             =   4091.21
 MB needed           =      0.15
 Data fit in memory  = YES
Calculating RI/J V-Matrix + Cholesky decomp.... done (  0.0 sec)
Calculating Nuclear repulsion               ... done (  0.0 sec) ENN=    186.915245207688 Eh

Diagonalization of the overlap matrix:
Smallest eigenvalue                        ... 1.609e-03
Time for diagonalization                   ...    0.002 sec
Threshold for overlap eigenvalues          ... 1.000e-07
Number of eigenvalues below threshold      ... 0
Time for construction of square roots      ...    0.001 sec
Total time needed                          ...    0.003 sec

-------------------
DFT GRID GENERATION
-------------------

General Integration Accuracy     IntAcc      ... 4.388
Radial Grid Type                 RadialGrid  ... OptM3 with GC (2021)
Angular Grid (max. ang.)         AngularGrid ... 4 (Lebedev-302)
Angular grid pruning method      GridPruning ... 4 (adaptive)
Weight generation scheme         WeightScheme... mBecke (2022)
Basis function cutoff            BFCut       ... 1.0000e-11
Integration weight cutoff        WCut        ... 1.0000e-14
Partially contracted basis set               ... off
Rotationally invariant grid construction     ... off
Angular grids for H and He will be reduced by one unit

Total number of grid points                  ...    49724
Total number of batches                      ...      783
Average number of points per batch           ...       63
Average number of grid points per atom       ...     4520

--------------------
COSX GRID GENERATION
--------------------

GRIDX 1
-------
General Integration Accuracy     IntAcc      ... 3.816
Radial Grid Type                 RadialGrid  ... OptM3 with GC (2021)
Angular Grid (max. ang.)         AngularGrid ... 1 (Lebedev-50)
Angular grid pruning method      GridPruning ... 4 (adaptive)
Weight generation scheme         WeightScheme... mBecke (2022)
Basis function cutoff            BFCut       ... 1.0000e-11
Integration weight cutoff        WCut        ... 1.0000e-14
Partially contracted basis set               ... on
Rotationally invariant grid construction     ... off
Angular grids for H and He will be reduced by one unit

Total number of grid points                  ...     6385
Total number of batches                      ...       58
Average number of points per batch           ...      110
Average number of grid points per atom       ...      580
UseSFitting                                  ... on

GRIDX 2
-------
General Integration Accuracy     IntAcc      ... 4.020
Radial Grid Type                 RadialGrid  ... OptM3 with GC (2021)
Angular Grid (max. ang.)         AngularGrid ... 2 (Lebedev-110)
Angular grid pruning method      GridPruning ... 4 (adaptive)
Weight generation scheme         WeightScheme... mBecke (2022)
Basis function cutoff            BFCut       ... 1.0000e-11
Integration weight cutoff        WCut        ... 1.0000e-14
Partially contracted basis set               ... on
Rotationally invariant grid construction     ... off
Angular grids for H and He will be reduced by one unit

Total number of grid points                  ...    13778
Total number of batches                      ...      114
Average number of points per batch           ...      120
Average number of grid points per atom       ...     1253
UseSFitting                                  ... on

GRIDX 3
-------
General Integration Accuracy     IntAcc      ... 4.338
Radial Grid Type                 RadialGrid  ... OptM3 with GC (2021)
Angular Grid (max. ang.)         AngularGrid ... 3 (Lebedev-194)
Angular grid pruning method      GridPruning ... 4 (adaptive)
Weight generation scheme         WeightScheme... mBecke (2022)
Basis function cutoff            BFCut       ... 1.0000e-11
Integration weight cutoff        WCut        ... 1.0000e-14
Partially contracted basis set               ... on
Rotationally invariant grid construction     ... off
Angular grids for H and He will be reduced by one unit

Total number of grid points                  ...    30307
Total number of batches                      ...      241
Average number of points per batch           ...      125
Average number of grid points per atom       ...     2755
UseSFitting                                  ... on
Grids setup in   0.6 sec
Initializing property integral containers    ... done (  0.0 sec)

SHARK setup successfully completed in   0.7 seconds

Maximum memory used throughout the entire STARTUP-calculation: 14.3 MB


           ************************************************************
           *        Program running with 6 parallel MPI-processes     *
           *              working on a common directory               *
           ************************************************************
-------------------------------------------------------------------------------
                                 ORCA GUESS
                   Start orbitals & Density for SCF / CASSCF
-------------------------------------------------------------------------------

------------
SCF SETTINGS
------------
Hamiltonian:
 Density Functional     Method          .... DFT(GTOs)
 Exchange Functional    Exchange        .... B88
   X-Alpha parameter    XAlpha          ....  0.666667
   Becke's b parameter  XBeta           ....  0.004200
 Correlation Functional Correlation     .... LYP
 LDA part of GGA corr.  LDAOpt          .... VWN-5
 Gradients option       PostSCFGGA      .... off
 Hybrid DFT is turned on
   Fraction HF Exchange ScalHFX         ....  0.200000
   Scaling of DF-GGA-X  ScalDFX         ....  0.720000
   Scaling of DF-GGA-C  ScalDFC         ....  0.810000
   Scaling of DF-LDA-C  ScalLDAC        ....  1.000000
   Perturbative correction              ....  0.000000
   NL short-range parameter             ....  4.800000
 RI-approximation to the Coulomb term is turned on
   Number of AuxJ basis functions       .... 311
   RIJ-COSX (HFX calculated with COS-X)).... on


General Settings:
 Integral files         IntName         .... orca
 Hartree-Fock type      HFTyp           .... RHF
 Total Charge           Charge          ....    0
 Multiplicity           Mult            ....    1
 Number of Electrons    NEL             ....   40
 Basis Dimension        Dim             ....  100
 Nuclear Repulsion      ENuc            ....    186.9152452077 Eh

Convergence Acceleration:
 AO-DIIS                CNVDIIS         .... on
   Start iteration      DIISMaxIt       ....    12
   Startup error        DIISStart       ....  0.200000
   # of expansion vecs  DIISMaxEq       ....     5
   Bias factor          DIISBfac        ....   1.050
   Max. coefficient     DIISMaxC        ....  10.000
 MO-DIIS                CNVKDIIS        .... off
 Trust-Rad. Augm. Hess. CNVTRAH         .... auto
   Auto Start mean grad. ratio tolernc. ....  1.125000
   Auto Start start iteration           ....    50
   Auto Start num. interpolation iter.  ....    10
   Max. Number of Micro iterations      ....    24
   Max. Number of Macro iterations      .... Maxiter - #DIIS iter
   Number of Davidson start vectors     ....     2
   Converg. threshold    (grad. norm)   ....   1.000e-05
   Grad. Scal. Fac. for Micro threshold ....   0.100
   Minimum threshold for Micro iter.    ....   1.000e-02
   NR start threshold (gradient norm)   ....   1.000e-04
   Initial trust radius                 ....   0.400
   Minimum AH scaling param. (alpha)    ....   1.000
   Maximum AH scaling param. (alpha)    .... 1000.000
   Quad. conv. algorithm                .... NR
   White noise on init. David. guess    .... on
   Maximum white noise                  ....   0.010
   Pseudo random numbers                .... off
   Inactive MOs                         .... canonical
   Orbital update algorithm             .... Taylor
   Preconditioner                       .... Diag
   Full preconditioner red. dimension   ....   250
 SOSCF                 CNVSOSCF           .... on
   Start iteration     SOSCFMaxIt         ....   150
   Startup grad/error  SOSCFStart         ....  0.003300
   Hessian update      SOSCFHessUp        .... L-BFGS
   Autom. constraints  SOSCFAutoConstrain .... off
 Level Shifting         CNVShift        .... on
   Level shift para.    LevelShift      ....    0.2500
   Turn off err/grad.   ShiftErr        ....    0.0010
 Zerner damping         CNVZerner       .... off
 Static damping         CNVDamp         .... on
   Fraction old density DampFac         ....    0.7000
   Max. Damping (<1)    DampMax         ....    0.9800
   Min. Damping (>=0)   DampMin         ....    0.0000
   Turn off err/grad.   DampErr         ....    0.1000

SCF Procedure:
 Maximum # iterations   MaxIter         ....   125
 SCF integral mode      SCFMode         .... Direct
   Integral package                     .... SHARK and LIBINT hybrid scheme
 Reset frequency        DirectResetFreq ....    20
 Integral Threshold     Thresh          ....  2.500e-11 Eh
 Primitive CutOff       TCut            ....  2.500e-12 Eh

Convergence Tolerance:
 Convergence Check Mode ConvCheckMode   .... Total+1el-Energy
 Convergence forced     ConvForced      .... 0
 Energy Change          TolE            ....  1.000e-08 Eh
 1-El. energy change                    ....  1.000e-05 Eh
 Orbital Gradient       TolG            ....  1.000e-05
 Orbital Rotation angle TolX            ....  1.000e-05
 DIIS Error             TolErr          ....  5.000e-07

------------------------------
INITIAL GUESS: MODEL POTENTIAL
------------------------------
Loading Hartree-Fock densities                     ... done
Calculating cut-offs                               ... done
Initializing the effective Hamiltonian             ... done
Setting up the integral package (SHARK)            ... done
Starting the Coulomb interaction                   ... done (   0.0 sec)
Making the grid                                    ... done (   0.1 sec)
Mapping shells                                     ... done
Starting the XC term evaluation                    ... done (   0.0 sec)
  promolecular density results
     # of electrons  =     40.000191843
     EX              =    -33.597652368
     EC              =     -1.361517890
     EX+EC           =    -34.959170258
Transforming the Hamiltonian                       ... done (   0.0 sec)
Diagonalizing the Hamiltonian                      ... done (   0.0 sec)
Back transforming the eigenvectors                 ... done (   0.0 sec)
Now organizing SCF variables                       ... done
                      ------------------
                      INITIAL GUESS DONE (   0.1 sec)
                      ------------------
             **** ENERGY FILE WAS UPDATED (orca.en.tmp) ****
Finished Guess after   0.3 sec
Maximum memory used throughout the entire GUESS-calculation: 7.2 MB


           ************************************************************
           *        Program running with 6 parallel MPI-processes     *
           *              working on a common directory               *
           ************************************************************

-------------------------------------------------------------------------------------------
                                      ORCA LEAN-SCF
                              memory conserving SCF solver
-------------------------------------------------------------------------------------------

----------------------------------------D-I-I-S--------------------------------------------
Iteration    Energy (Eh)           Delta-E    RMSDP     MaxDP     DIISErr   Damp  Time(sec)
-------------------------------------------------------------------------------------------
               ***  Starting incremental Fock matrix formation  ***
    1    -267.8434949847536473     0.00e+00  1.12e-02  7.18e-02  2.41e-01  0.700   0.5
    2    -267.9028974445564018    -5.94e-02  7.60e-03  4.07e-02  1.03e-01  0.700   0.3
                               ***Turning on AO-DIIS***
    3    -267.9256938206839322    -2.28e-02  2.87e-03  1.20e-02  2.63e-02  0.700   0.3
    4    -267.9397875947571492    -1.41e-02  4.45e-03  1.70e-02  1.62e-02  0.000   0.3
    5    -267.9710883434086099    -3.13e-02  7.91e-04  4.74e-03  3.46e-03  0.000   0.3
                              *** Initializing SOSCF ***
---------------------------------------S-O-S-C-F--------------------------------------
Iteration    Energy (Eh)           Delta-E    RMSDP     MaxDP     MaxGrad    Time(sec)
--------------------------------------------------------------------------------------
    6    -267.9711724396668160    -8.41e-05  2.66e-04  1.52e-03  6.10e-04     0.3
               *** Restarting incremental Fock matrix formation ***
    7    -267.9711291354666400     4.33e-05  1.89e-04  9.72e-04  1.67e-04     0.4
    8    -267.9711294839059974    -3.48e-07  5.46e-05  3.94e-04  1.83e-04     0.4
    9    -267.9711300052254046    -5.21e-07  4.08e-05  2.42e-04  4.15e-05     0.4
   10    -267.9711300486147820    -4.34e-08  8.79e-06  8.71e-05  1.66e-05     0.3
   11    -267.9711300581775504    -9.56e-09  6.27e-06  3.88e-05  6.63e-06     0.3
                 **** Energy Check signals convergence ****

               *****************************************************
               *                     SUCCESS                       *
               *           SCF CONVERGED AFTER  11 CYCLES          *
               *****************************************************

Recomputing exchange energy using gridx3       ... done (    0.602 sec)
Old exchange energy                            :     -6.823411597 Eh
New exchange energy                            :     -6.823405359 Eh
Exchange energy change after final integration :      0.000006237 Eh
Total energy after final integration           :   -267.971123824 Eh
             **** ENERGY FILE WAS UPDATED (orca.en.tmp) ****

----------------
TOTAL SCF ENERGY
----------------

Total Energy       :       -267.97112382447943 Eh           -7291.86499 eV

Components:
Nuclear Repulsion  :        186.91524520768806 Eh            5086.22240 eV
Electronic Energy  :       -454.88637526941193 Eh          -12378.08756 eV
One Electron Energy:       -735.45439696629376 Eh          -20012.73157 eV
Two Electron Energy:        280.56802169688183 Eh            7634.64401 eV

Virial components:
Potential Energy   :       -533.75190725957304 Eh          -14524.12779 eV
Kinetic Energy     :        265.78078343509355 Eh            7232.26280 eV
Virial Ratio       :          2.00824115408600

DFT components:
N(Alpha)           :       19.999992650018 electrons
N(Beta)            :       19.999992650018 electrons
N(Total)           :       39.999985300036 electrons
E(X)               :      -27.124446125737 Eh       
E(C)               :       -1.607288878066 Eh       
E(XC)              :      -28.731735003803 Eh       

---------------
SCF CONVERGENCE
---------------

  Last Energy change         ...    9.5628e-09  Tolerance :   1.0000e-08
  Last MAX-Density change    ...    3.8829e-05  Tolerance :   1.0000e-07
  Last RMS-Density change    ...    6.2685e-06  Tolerance :   5.0000e-09
  Last DIIS Error            ...    6.0992e-04  Tolerance :   5.0000e-07
  Last Orbital Gradient      ...    6.6339e-06  Tolerance :   1.0000e-05
  Last Orbital Rotation      ...    1.0133e-05  Tolerance :   1.0000e-05


----------------
ORBITAL ENERGIES
----------------

  NO   OCC          E(Eh)            E(eV) 
   0   2.0000     -19.139795      -520.8203 
   1   2.0000     -19.119680      -520.2729 
   2   2.0000     -10.240633      -278.6618 
   3   2.0000     -10.227634      -278.3081 
   4   2.0000     -10.227261      -278.2979 
   5   2.0000      -1.039516       -28.2867 
   6   2.0000      -1.009651       -27.4740 
   7   2.0000      -0.720890       -19.6164 
   8   2.0000      -0.683906       -18.6100 
   9   2.0000      -0.558137       -15.1877 
  10   2.0000      -0.539103       -14.6697 
  11   2.0000      -0.498517       -13.5653 
  12   2.0000      -0.461018       -12.5449 
  13   2.0000      -0.434468       -11.8225 
  14   2.0000      -0.400465       -10.8972 
  15   2.0000      -0.380688       -10.3590 
  16   2.0000      -0.346917        -9.4401 
  17   2.0000      -0.311240        -8.4693 
  18   2.0000      -0.271993        -7.4013 
  19   2.0000      -0.247405        -6.7322 
  20   0.0000       0.039786         1.0826 
  21   0.0000       0.073141         1.9903 
  22   0.0000       0.097244         2.6461 
  23   0.0000       0.102296         2.7836 
  24   0.0000       0.107959         2.9377 
  25   0.0000       0.144864         3.9420 
  26   0.0000       0.147828         4.0226 
  27   0.0000       0.177156         4.8207 
  28   0.0000       0.218674         5.9504 
  29   0.0000       0.249086         6.7780 
  30   0.0000       0.296185         8.0596 
*Only the first 10 virtual orbitals were printed.

                    ********************************
                    * MULLIKEN POPULATION ANALYSIS *
                    ********************************

-----------------------
MULLIKEN ATOMIC CHARGES
-----------------------
   0 H :    0.008066
   1 C :    0.258683
   2 C :   -0.022865
   3 H :    0.008015
   4 H :   -0.002829
   5 O :   -0.272671
   6 H :    0.167859
   7 O :   -0.403132
   8 C :    0.263792
   9 H :    0.002139
  10 H :   -0.007057
Sum of atomic charges:    0.0000000

--------------------------------
MULLIKEN REDUCED ORBITAL CHARGES
--------------------------------
  0 H s       :     0.970792  s :     0.970792
      pz      :     0.011524  p :     0.021142
      px      :     0.003877
      py      :     0.005740

  1 C s       :     2.994211  s :     2.994211
      pz      :     1.001544  p :     2.685895
      px      :     0.800112
      py      :     0.884239
      dz2     :     0.007700  d :     0.061211
      dxz     :     0.007809
      dyz     :     0.014998
      dx2y2   :     0.011056
      dxy     :     0.019648

  2 C s       :     3.112701  s :     3.112701
      pz      :     0.960811  p :     2.839055
      px      :     0.868809
      py      :     1.009434
      dz2     :     0.016194  d :     0.071109
      dxz     :     0.017065
      dyz     :     0.005668
      dx2y2   :     0.012131
      dxy     :     0.020051

  3 H s       :     0.970710  s :     0.970710
      pz      :     0.009416  p :     0.021275
      px      :     0.003723
      py      :     0.008135

  4 H s       :     0.982710  s :     0.982710
      pz      :     0.013529  p :     0.020119
      px      :     0.002673
      py      :     0.003917

  5 O s       :     3.711175  s :     3.711175
      pz      :     1.660030  p :     4.548371
      px      :     1.259111
      py      :     1.629231
      dz2     :     0.001928  d :     0.013125
      dxz     :     0.004275
      dyz     :     0.002349
      dx2y2   :     0.001425
      dxy     :     0.003148

  6 H s       :     0.763764  s :     0.763764
      pz      :     0.018074  p :     0.068377
      px      :     0.024666
      py      :     0.025637

  7 O s       :     3.809589  s :     3.809589
      pz      :     1.855024  p :     4.576243
      px      :     1.522897
      py      :     1.198322
      dz2     :     0.002224  d :     0.017300
      dxz     :     0.002652
      dyz     :     0.001702
      dx2y2   :     0.002946
      dxy     :     0.007777

  8 C s       :     2.991954  s :     2.991954
      pz      :     0.992120  p :     2.683230
      px      :     0.807538
      py      :     0.883572
      dz2     :     0.007736  d :     0.061024
      dxz     :     0.007695
      dyz     :     0.015057
      dx2y2   :     0.011172
      dxy     :     0.019364

  9 H s       :     0.976655  s :     0.976655
      pz      :     0.009224  p :     0.021206
      px      :     0.003877
      py      :     0.008105

 10 H s       :     0.986088  s :     0.986088
      pz      :     0.011646  p :     0.020969
      px      :     0.003770
      py      :     0.005552



                     *******************************
                     * LOEWDIN POPULATION ANALYSIS *
                     *******************************

----------------------
LOEWDIN ATOMIC CHARGES
----------------------
   0 H :    0.013594
   1 C :    0.094149
   2 C :    0.037009
   3 H :    0.010410
   4 H :    0.005964
   5 O :   -0.123879
   6 H :    0.079541
   7 O :   -0.210646
   8 C :    0.079240
   9 H :    0.006927
  10 H :    0.007692

-------------------------------
LOEWDIN REDUCED ORBITAL CHARGES
-------------------------------
  0 H s       :     0.920531  s :     0.920531
      pz      :     0.034721  p :     0.065875
      px      :     0.012035
      py      :     0.019118

  1 C s       :     2.866135  s :     2.866135
      pz      :     1.066574  p :     2.902747
      px      :     0.893930
      py      :     0.942243
      dz2     :     0.016062  d :     0.136969
      dxz     :     0.016533
      dyz     :     0.037688
      dx2y2   :     0.020089
      dxy     :     0.046596

  2 C s       :     2.857300  s :     2.857300
      pz      :     0.998728  p :     2.944604
      px      :     0.896394
      py      :     1.049482
      dz2     :     0.040033  d :     0.161087
      dxz     :     0.037347
      dyz     :     0.009850
      dx2y2   :     0.023700
      dxy     :     0.050156

  3 H s       :     0.924943  s :     0.924943
      pz      :     0.027329  p :     0.064648
      px      :     0.011833
      py      :     0.025485

  4 H s       :     0.928355  s :     0.928355
      pz      :     0.041607  p :     0.065681
      px      :     0.010920
      py      :     0.013155

  5 O s       :     3.443229  s :     3.443229
      pz      :     1.687570  p :     4.655476
      px      :     1.317225
      py      :     1.650681
      dz2     :     0.002859  d :     0.025174
      dxz     :     0.008434
      dyz     :     0.003323
      dx2y2   :     0.003027
      dxy     :     0.007532

  6 H s       :     0.741773  s :     0.741773
      pz      :     0.050490  p :     0.178687
      px      :     0.057947
      py      :     0.070250

  7 O s       :     3.516901  s :     3.516901
      pz      :     1.851585  p :     4.664827
      px      :     1.558574
      py      :     1.254668
      dz2     :     0.003550  d :     0.028918
      dxz     :     0.003153
      dyz     :     0.002971
      dx2y2   :     0.004388
      dxy     :     0.014857

  8 C s       :     2.873343  s :     2.873343
      pz      :     1.065535  p :     2.910933
      px      :     0.904800
      py      :     0.940599
      dz2     :     0.016170  d :     0.136484
      dxz     :     0.016267
      dyz     :     0.037728
      dx2y2   :     0.020564
      dxy     :     0.045754

  9 H s       :     0.928144  s :     0.928144
      pz      :     0.026695  p :     0.064930
      px      :     0.012430
      py      :     0.025805

 10 H s       :     0.926639  s :     0.926639
      pz      :     0.035186  p :     0.065669
      px      :     0.012038
      py      :     0.018446



                      *****************************
                      * MAYER POPULATION ANALYSIS *
                      *****************************

  NA   - Mulliken gross atomic population
  ZA   - Total nuclear charge
  QA   - Mulliken gross atomic charge
  VA   - Mayer's total valence
  BVA  - Mayer's bonded valence
  FA   - Mayer's free valence

  ATOM       NA         ZA         QA         VA         BVA        FA
  0 H      0.9919     1.0000     0.0081     0.9910     0.9910     0.0000
  1 C      5.7413     6.0000     0.2587     3.8967     3.8967    -0.0000
  2 C      6.0229     6.0000    -0.0229     4.2759     4.2759    -0.0000
  3 H      0.9920     1.0000     0.0080     0.9713     0.9713     0.0000
  4 H      1.0028     1.0000    -0.0028     0.9649     0.9649    -0.0000
  5 O      8.2727     8.0000    -0.2727     2.1117     2.1117    -0.0000
  6 H      0.8321     1.0000     0.1679     1.0088     1.0088     0.0000
  7 O      8.4031     8.0000    -0.4031     2.1079     2.1079     0.0000
  8 C      5.7362     6.0000     0.2638     3.8743     3.8743     0.0000
  9 H      0.9979     1.0000     0.0021     0.9699     0.9699     0.0000
 10 H      1.0071     1.0000    -0.0071     0.9902     0.9902     0.0000

  Mayer bond orders larger than 0.100000
B(  0-H ,  1-C ) :   0.9242 B(  1-C ,  2-C ) :   1.0785 B(  1-C ,  3-H ) :   0.9426 
B(  1-C ,  7-O ) :   1.0247 B(  2-C ,  4-H ) :   0.9253 B(  2-C ,  5-O ) :   1.1074 
B(  2-C ,  8-C ) :   1.0617 B(  5-O ,  6-H ) :   0.9765 B(  7-O ,  8-C ) :   1.0301 
B(  8-C ,  9-H ) :   0.9394 B(  8-C , 10-H ) :   0.9181 

-------
TIMINGS
-------

Total SCF time: 0 days 0 hours 0 min 4 sec 

Total time                  ....       4.855 sec
Sum of individual times     ....       4.505 sec  ( 92.8%)

SCF preparation             ....       0.159 sec  (  3.3%)
Fock matrix formation       ....       4.187 sec  ( 86.2%)
  Startup                   ....       0.004 sec  (  0.1% of F)
  Split-RI-J                ....       0.321 sec  (  7.7% of F)
  Chain of spheres X        ....       3.133 sec  ( 74.8% of F)
  XC integration            ....       0.951 sec  ( 22.7% of F)
    XC Preparation          ....       0.000 sec  (  0.0% of XC)
    Basis function eval.    ....       0.275 sec  ( 28.9% of XC)
    Density eval.           ....       0.150 sec  ( 15.8% of XC)
    XC-Functional eval.     ....       0.060 sec  (  6.3% of XC)
    XC-Potential eval.      ....       0.192 sec  ( 20.2% of XC)
Diagonalization             ....       0.000 sec  (  0.0%)
Density matrix formation    ....       0.020 sec  (  0.4%)
Total Energy calculation    ....       0.012 sec  (  0.2%)
Population analysis         ....       0.010 sec  (  0.2%)
Orbital Transformation      ....       0.012 sec  (  0.2%)
Orbital Orthonormalization  ....       0.000 sec  (  0.0%)
DIIS solution               ....       0.068 sec  (  1.4%)
SOSCF solution              ....       0.037 sec  (  0.8%)
Finished LeanSCF after   4.9 sec

Maximum memory used throughout the entire LEANSCF-calculation: 8.8 MB


-------------------------------------------------------------------------------
                          DFT DISPERSION CORRECTION                            
                                                                               
                              DFTD3 V3.1  Rev 1                                
                          USING Becke-Johnson damping                          
-------------------------------------------------------------------------------
The B3LYP functional is recognized
Active option DFTDOPT                   ...         4   

molecular C6(AA) [au] = 878.298475 


            DFT-D V3
 parameters
 s6 scaling factor         :     1.0000 
 a1 scaling factor         :     0.3981 
 s8 scaling factor         :     1.9889 
 a2 scaling factor         :     4.4211 
 ad hoc parameters k1-k3   :    16.0000     1.3333    -4.0000 

 Edisp/kcal,au: -7.311957119345  -0.011652344134 
 E6   /kcal   :  -3.581957570 
 E8   /kcal   :  -3.729999549 
 % E8         :  51.012328005 

-------------------------   ----------------
Dispersion correction           -0.011652344
-------------------------   ----------------


-------------------------   --------------------
FINAL SINGLE POINT ENERGY      -267.982776168614
-------------------------   --------------------



           ************************************************************
           *        Program running with 6 parallel MPI-processes     *
           *              working on a common directory               *
           ************************************************************
------------------------------------------------------------------------------
                         ORCA SCF GRADIENT CALCULATION
------------------------------------------------------------------------------

Nuc. rep. gradient        (SHARK) ... done (  0.0 sec)
HCore & Overlap gradient  (SHARK) ... done (  0.0 sec)
Split-RIJ-J gradient      (SHARK) ... done (  0.2 sec)
done (  2.7 sec)
XC gradient                       ... done (  0.5 sec)
Dispersion correction             ... done (  0.0 sec)

-------------------
DISPERSION GRADIENT
-------------------

   1   H   :   -0.000057948    0.000213523   -0.000101176
   2   C   :   -0.000132238    0.000232705   -0.000006118
   3   C   :    0.000062581    0.000003499    0.000040416
   4   H   :   -0.000101007    0.000214739    0.000060783
   5   H   :    0.000121160    0.000003497    0.000170704
   6   O   :    0.000389947    0.000012246   -0.000056822
   7   H   :    0.000287988   -0.000033615   -0.000008884
   8   O   :   -0.000231824    0.000001777   -0.000037504
   9   C   :   -0.000147001   -0.000215545   -0.000009244
  10   H   :   -0.000113438   -0.000218000    0.000058927
  11   H   :   -0.000078219   -0.000214827   -0.000111082

Difference to translation invariance:
           :   -0.0000000000    0.0000000000    0.0000000000

Difference to rotation invariance:
           :   -0.0000000000   -0.0000000000   -0.0000000000

Norm of the Dispersion gradient    ...    0.0008553532
RMS gradient                       ...    0.0001488979
MAX gradient                       ...    0.0003899469

------------------
CARTESIAN GRADIENT
------------------

   1   H   :    0.000042196   -0.000031257    0.000067604
   2   C   :    0.000063990   -0.000085555    0.000172856
   3   C   :   -0.000097051    0.000010296   -0.000078515
   4   H   :   -0.000031065   -0.000035642    0.000003527
   5   H   :   -0.000011663    0.000009171    0.000002054
   6   O   :    0.000012550   -0.000072352   -0.000051416
   7   H   :   -0.000027221    0.000065654   -0.000087137
   8   O   :   -0.000018219   -0.000000867   -0.000252073
   9   C   :    0.000057725    0.000084251    0.000139397
  10   H   :   -0.000023516    0.000034238    0.000004151
  11   H   :    0.000032274    0.000022062    0.000079551

Difference to translation invariance:
           :   -0.0000000001    0.0000000000   -0.0000000001

Difference to rotation invariance:
           :    0.0000208513   -0.0000051094    0.0000428599

Norm of the Cartesian gradient     ...    0.0004368042
RMS gradient                       ...    0.0000760378
MAX gradient                       ...    0.0002520726

-------
TIMINGS
-------

Total SCF gradient time     ....        3.451 sec

Densities                   ....       0.000 sec  (  0.0%)
One electron gradient       ....       0.024 sec  (  0.7%)
RI-J Coulomb gradient       ....       0.170 sec  (  4.9%)
COSX gradient               ....       2.746 sec  ( 79.6%)
XC gradient                 ....       0.474 sec  ( 13.7%)

Maximum memory used throughout the entire SCFGRAD-calculation: 27.1 MB


           ************************************************************
           *        Program running with 6 parallel MPI-processes     *
           *              working on a common directory               *
           ************************************************************

------------------------------------------------------------------------------
                              ORCA PROPERTY CALCULATIONS
------------------------------------------------------------------------------

GBWName                                 ... orca.gbw
Number of atoms                         ...     11
Number of basis functions               ...    100
Max core memory                         ...   4096 MB

Electric properties:
Dipole moment                           ... YES
Quadrupole moment                       ...  NO
Static polarizability (Dipole/Dipole)   ...  NO
Static polarizability (Dipole/Quad.)    ...  NO
Static polarizability (Quad./Quad.)     ...  NO
Static polarizability (Velocity)        ...  NO
Static hyperpolarizability              ...  NO

Atomic electric properties:
Dipole moment                           ...  NO
Quadrupole moment                       ...  NO
Static polarizability                   ...  NO

Choice of electric origin               ... Center of mass
Position of electric origin             ...    -0.055717    -0.006678    -0.032175

General magnetic properties:
Magnetizability                         ...  NO

EPR properties:
g-Tensor (aka g-matrix)                 ...  NO
Zero-Field splitting spin-orbit         ...  NO
Zero-field splitting spin-spin          ...  NO
Hyperfine couplings                     ...  NO (   0 nuclei)
Quadrupole couplings                    ...  NO (   0 nuclei)
Contact density                         ...  NO (   0 nuclei)

NMR properties:
Chemical shifts                         ...  NO (   0 nuclei)
Spin-rotation constants                 ...  NO (   0 nuclei)
Spin-spin couplings                     ...  NO (   0 nuclei,    0 pairs)

Choice of magnetic origin               ... GIAO
Position of magnetic origin             ...     0.000000     0.000000     0.000000

Properties with geometric perturbations:
SCF Hessian                             ...  NO
IR spectrum                             ...  NO
VCD spectrum                            ...  NO
X-ray spectroscopy properties:
SCF XES/XAS/RIXS spectra                ...  NO

SCF SOC stabilization energy            ...  NO
Diagonal Born-Oppenheimer correction    ...  NO

-------------
DIPOLE MOMENT
-------------

Method             : SCF
Type of density    : Electron Density
Multiplicity       :   1
Irrep              :   0
Energy             :  -267.9711238244794345 Eh
Basis              : AO
                                X                 Y                 Z
Electronic contribution:     -0.245685167       0.203451850      -0.662105830
Nuclear contribution   :      1.015204383      -0.591493006       1.261012187
                        -----------------------------------------
Total Dipole Moment    :      0.769519216      -0.388041156       0.598906357
                        -----------------------------------------
Magnitude (a.u.)       :      1.049487774
Magnitude (Debye)      :      2.667585924



--------------------
Rotational spectrum 
--------------------
 
Rotational constants in cm-1:             0.359819             0.152029             0.121849 
Rotational constants in MHz :         10787.116190          4557.705447          3652.939953 

Dipole components along the rotational axes: 
x,y,z [a.u.] :     0.743338     0.406032     0.619686 
x,y,z [Debye]:     1.889416     1.032052     1.575115 

 

Dipole moment calculation done in   0.0 sec 

Maximum memory used throughout the entire PROP-calculation: 5.2 MB

--------------------------------
SUGGESTED CITATIONS FOR THIS RUN
--------------------------------

Below you find a list of papers that are relevant to this ORCA run
We neither can nor want to force you to cite these papers, but we appreciate if you do
You receive ORCA, which is the product of decades of hard work by many enthusiastic individuals, for free
The only thing we kindly ask in return is that you cite our papers,
We deeply appreciate it, if you show your appreciation for ORCA by not just citing the generic ORCA reference.

Please note that relegating all ORCA citations to the supporting information does *not* help us.
SI sections are not indexed - citations you put there will not count into any citation statistics
But we need these citations in order to attract the funding resources that allow us to do what we are doing

Therefore, if you are a happy ORCA user, please consider citing a few of the papers listed below in the main body of your paper

In addition to the list printed below, the program has created the file orca.bibtex that contains the list in bibtex format
You can import this file easily into all common literature databanks and citation aid programs


List of essential papers. We consider these as the minimum necessary citations

  1. Neese, F.
     Software update: the ORCA program system, version 6.0
     WIRES Comput. Molec. Sci. 2025 15(1), e70019
     doi.org/10.1002/wcms.7019

List of papers to cite with high priority. The work reported in these papers was absolutely
necessary for this run to complete.
Our perspective: the developers of density functionals and basis sets usually get cited in chemistry papers
Good! But without the algorithms to do something with them, the functionals or basis sets would not do anything.
Hence, in our opinion, the algorithm design and method developments papers are equally worthy of getting cited

  1. Neese, F.
     An improvement of the resolution of the identity approximation for the formation of the Coulomb matrix
     J. Comp. Chem. 2003 24(14), 1740-1747
     doi.org/10.1002/jcc.10318
  2. Neese, F.; Wennmohs, F.; Hansen, A.; Becker, U.
     Efficient, approximate and parallel Hartree-Fock and hybrid DFT calculations. A 'chain-of-spheres' algorithm for the Hartree-Fock exchange
     Chem. Phys. 2009 356(1-3), 98-109
     doi.org/10.1016/j.chemphys.2008.10.036
  3. Grimme, S.; Antony, J.; Ehrlich, S.; Krieg, H.
     A consistent and accurate ab initio parametrization of density functional dispersion correction (DFT-D) for the 94 elements H-Pu
     J. Chem. Phys. 2010 132 , 154104
     doi.org/10.1063/1.3382344
  4. Grimme, S.; Ehrlich, S.; Goerigk, L.
     Effect of the damping function in dispersion corrected density functional theory
     J. Comput. Chem. 2011 32(7), 1456-1465
     doi.org/10.1002/jcc.21759
  5. Helmich-Paris, B.; de Souza, B.; Neese, F.; Izsák, R.
     An improved chain of spheres for exchange algorithm
     J. Chem. Phys. 2021 155(10), 104109
     doi.org/10.1063/5.0058766
  6. Neese, F.
     The SHARK Integral Generation and Digestion System
     J. Comp. Chem. 2022 44(3), 381
     doi.org/10.1002/jcc.26942

List of suggested additional citations. These are papers that are important in the 'surrounding' of 
of this run, or papers that preceded the highly important papers. If you like your results we are grateful for a citation.

  1. Izsak, R.; Neese, F.
     An overlap fitted chain of spheres exchange method
     J. Chem. Phys. 2011 135 , 144105
     doi.org/10.1063/1.3646921
  2. Izsak, R.; Hansen, A.; Neese, F.
     The resolution of identity and chain of spheres approximations for the LPNO-CCSD singles Fock term
     Molec. Phys. 2012 110 , 2413-2417
     doi.org/10.1080/00268976.2012.687466
  3. Neese, F.
     The ORCA program system
     WIRES Comput. Molec. Sci. 2012 2(1), 73-78
     doi.org/10.1002/wcms.81
  4. Izsak, R.; Neese, F.; Klopper, W.
     Robust fitting techniques in the chain of spheres approximation to the Fock exchange: The role of the complementary space
     J. Chem. Phys. 2013 139 , 
     doi.org/10.1063/1.4819264
  5. Neese, F.
     Software update: the ORCA program system, version 4.0
     WIRES Comput. Molec. Sci. 2018 8(1), 1-6
     doi.org/10.1002/wcms.1327
  6. Neese, F.; Wennmohs, F.; Becker, U.; Riplinger, C.
     The ORCA quantum chemistry program package
     J. Chem. Phys. 2020 152(22), 224108
     doi.org/10.1063/5.0004608
  7. Neese, F.
     Software update: The ORCA program system—Version 5.0
     WIRES Comput. Molec. Sci. 2022 12(1), e1606
     doi.org/10.1002/wcms.1606

List of optional additional citations

  1. Neese, F.
     Approximate second-order SCF convergence for spin unrestricted wavefunctions
     Chem. Phys. Lett. 2000 325(1-3), 93-98
     doi.org/10.1016/s0009-2614(00)00662-x

Timings for individual modules:

Sum of individual times          ...       11.314 sec (=   0.189 min)
Startup calculation              ...        1.132 sec (=   0.019 min)  10.0 %
SCF iterations                   ...        5.840 sec (=   0.097 min)  51.6 %
Property calculations            ...        0.426 sec (=   0.007 min)   3.8 %
SCF Gradient evaluation          ...        3.916 sec (=   0.065 min)  34.6 %
                             ****ORCA TERMINATED NORMALLY****
TOTAL RUN TIME: 0 days 0 hours 0 minutes 11 seconds 867 msec
