
                                 *****************
                                 * O   R   C   A *
                                 *****************

                                            #,                                       
                                            ###                                      
                                            ####                                     
                                            #####                                    
                                            ######                                   
                                           ########,                                 
                                     ,,################,,,,,                         
                               ,,#################################,,                 
                          ,,##########################################,,             
                       ,#########################################, ''#####,          
                    ,#############################################,,   '####,        
                  ,##################################################,,,,####,       
                ,###########''''           ''''###############################       
              ,#####''   ,,,,##########,,,,          '''####'''          '####       
            ,##' ,,,,###########################,,,                        '##       
           ' ,,###''''                  '''############,,,                           
         ,,##''                                '''############,,,,        ,,,,,,###''
      ,#''                                            '''#######################'''  
     '                                                          ''''####''''         
             ,#######,   #######,   ,#######,      ##                                
            ,#'     '#,  ##    ##  ,#'     '#,    #''#        ,####,    ,#,          
            ##       ##  ##   ,#'  ##            #'  '#       #'       ,# #          
            ##       ##  #######   ##           ,######,      #####,      #          
            '#,     ,#'  ##    ##  '#,     ,#' ,#      #,     #,   #      #          
             '#######'   ##     ##  '#######'  #'      '#     '####' #    #          



                #########################################################
                #                        -***-                          #
                #          Department of theory and spectroscopy        #
                #                                                       #
                #                      Frank Neese                      #
                #                                                       #
                #     Directorship, Architecture, Infrastructure        #
                #                    SHARK, DRIVERS                     #
                #        Core code/Algorithms in most modules           #
                #                                                       #
                #        Max Planck Institute fuer Kohlenforschung      #
                #                Kaiser Wilhelm Platz 1                 #
                #                 D-45470 Muelheim/Ruhr                 #
                #                      Germany                          #
                #                                                       #
                #                  All rights reserved                  #
                #                        -***-                          #
                #########################################################


                         Program Version 6.1.0  -  RELEASE   -
                                (GIT: $679e74b$)
                          ($2025-06-10 18:02:51 +0200$)


 With contributions from (in alphabetic order):
[Max-Planck-Institut fuer Kohlenforschung]                               
  Daniel Aravena         : Magnetic Suceptibility                        
  Michael Atanasov       : Ab Initio Ligand Field Theory (pilot matlab implementation)
  Alexander A. Auer      : GIAO ZORA, VPT2 properties, NMR spectrum      
  Ute Becker             : All parallelization in ORCA, NUMFREQ, NUMCALC 
  Giovanni Bistoni       : ED, misc. LED, open-shell LED, HFLD           
  Dmytro Bykov           : pre 5.0 version of the SCF Hessian            
  Marcos Casanova-Páez   : Triplet and SCS-CIS(D). UHF-(DLPNO)-IP/EA/STEOM-CCSD. UHF-CVS-IP/STEOM-CCSD   
  Vijay G. Chilkuri      : MRCI spin determinant printing, contributions to CSF-ICE 
  Pauline Colinet        : FMM embedding                                 
  Dipayan Datta          : RHF DLPNO-CCSD density                        
  Achintya Kumar Dutta   : EOM-CC, STEOM-CC                              
  Nicolas Foglia         : Exact transition moments, OPA infrastructure, MCD improvements    
  Dmitry Ganyushin       : Spin-Orbit,Spin-Spin,Magnetic field MRCI      
  Miquel Garcia-Rates    : C-PCM and meta-GGA Hessian, CCSD/C-PCM, Gaussian charge scheme 
  Tiago L. C. Gouveia    : GS-ROHF, GS-ROCIS                             
  Yang Guo               : DLPNO-NEVPT2, F12-NEVPT2, CIM, IAO-localization        
  Andreas Hansen         : Spin unrestricted coupled pair/coupled cluster methods 
  Ingolf Harden          : AUTO-CI MPn and infrastructure                
  Benjamin Helmich-Paris : MC-RPA, TRAH-(SCF,CASSCF), AVAS, COSX integrals, SCF dyn. polar., MC-PDFT, srDFT 
  Lee Huntington         : MR-EOM, pCC                                   
  Robert Izsak           : Overlap fitted RIJCOSX, COSX-SCS-MP3, EOM     
  Riya Kayal             : Wick's Theorem for AUTO-CI, AUTO-CI UHF-CCSDT 
  Emily Kempfer          : AUTO-CI RHF CISDT and CCSDT, approximate NEVPT4
  Christian Kollmar      : KDIIS, OOCD, Brueckner-CCSD(T), CCSD density, CASPT2, CASPT2-K, improved NEVPT2 
  Axel Koslowski         : Symmetry handling                             
  Simone Kossmann        : meta-GGA functionals, TD-DFT gradient, OOMP2, (MP2 Hessian; deprecated post 5.0) 
  Lucas Lang             : DCDCAS, Hyperfine gauge corrections, ICE-SOC+SSC
  Marvin Lechner         : AUTO-CI (C++ implementation), FIC-MRCC        
  Spencer Leger          : CASSCF response                               
  Dagmar Lenk            : GEPOL surface, SMD, ORCA-2-JSON               
  Dimitrios Liakos       : Extrapolation schemes; Compound Job, Property file
  Dimitrios Manganas     : Further ROCIS development; embedding schemes. LFT, Crystal Embedding 
  Dimitrios Pantazis     : SARC Basis sets                               
  Anastasios Papadopoulos: AUTO-CI, single reference methods and gradients 
  Taras Petrenko         : pre 6.0 DFT Hessian and TD-DFT gradient,  ECA, NRVS 
  Petra Pikulova         : Analytic Raman intensities                    
  Peter Pinski           : DLPNO-MP2, DLPNO-MP2 Gradient                 
  Shashank Vittal Rao    : ES-AILFT, MagRelax                            
  Christoph Reimann      : Effective Core Potentials                     
  Marius Retegan         : Local ZFS, SOC                                
  Christoph Riplinger    : Optimizer, TS searches, QM/MM, DLPNO-CCSD(T), (RO)-DLPNO pert. Triples 
  Michael Roemelt        : Original ROCIS implementation, recursive CI coupling coefficients
  Masaaki Saitow         : Open-shell DLPNO-CCSD energy and density      
  Barbara Sandhoefer     : DKH picture change effects                    
  Yorick L. A. Schmerwitz: GMF and freeze-and-release deltaSCF, NEB S-IDPP initial path                    
  Kantharuban Sivalingam : CASSCF convergence/infrastructure, NEVPT2, NEVPT3, NEVPT4(SD), FIC-MRCI and CEPA variants
  Bernardo de Souza      : ESD, SOC TD-DFT                               
  Georgi L. Stoychev     : AutoAux, RI-MP2 NMR, DLPNO-MP2 response, X2C  
  Van Anh Tran           : RI-MP2 g-tensors                              
  Willem Van den Heuvel  : Paramagnetic NMR                              
  Zikuan Wang            : NOTCH, Electric field optimization            
  Frank Wennmohs         : Technical directorship and infrastructure     
  Hang Xu                : AUTO-CI-Response properties                   
                                                                         
[FACCTs GmbH]                                                            
  Markus Bursch, Nicolas Foglia, Miquel Garcia-Rates, Ingolf Harden, Hagen Neugebauer, Anastasios Papadopoulos, 
  Christoph Riplinger, Bernardo de Souza, Georgi L. Stoychev                                                    
                                                                 
  APM, various basis sets, CI-OPT, improved COSX, DLPNO-Multilevel,           
  DOCKER, DRACO, updates on ESD, Fragmentator, GOAT, IRC, LR-CPCM, L-BFGS, MBIS, meta-GGA TD-DFT gradient, ML-optimized integration grids, 
  MM, NACMEs, nearIR, NEB, NEB-TS, NL-DFT gradient (VV10), 2- and 3-layer-ONIOM, interface openCOSMO-RS, QMMM,   
  Crystal-QMMM, RESP, rigid body optimization, SF, symmetry and pop. for TD-DFT, various functionals, SOLVATOR                                   
                                                                         
[Other institutions]                                                     
  V. Asgeirsson          : NEB                                           
  Christoph Bannwarth    : sTDA-DFT, sTD-DFT, PBEh-3c, B97-3c, D3        
  Giovanni Bistoni       : ETS/NOCV, ADLD/ADEX, COVALED                  
  Martin Brehm           : Molecular dynamics                            
  Ronald Cardenas        : ETS/NOCV                                      
  Martina Colucci        : COVALED                                       
  Sebastian Ehlert       : rSCAN, r2SCAN, r2SCAN-3c, D4, dhf basis sets  
  Marvin Friede          : D4 for Fr, Ra, Ac-Lr                          
  Lars Goerigk           : TD-DFT with DH, B97 family of functionals     
  Stefan Grimme          : VdW corrections, initial TS optimization, DFT functionals, gCP, sTDA/sTD-DF 
  Waldemar Hujo          : DFT-NL                                        
  H. Jonsson             : NEB                                           
  Holger Kruse           : gCP                                           
  Marcel Mueller         : wB97X-3c, vDZP basis set                      
  Hagen Neugebauer       : wr2SCAN, Native XTB                           
  Gianluca Regni         : ADLD/ADEX                                     
  Tobias Risthaus        : pre 6.0 range-separated hybrid DFT and stability analysis
  Lukas Wittmann         : regularized MP2, r2SCAN double-hybrids, wr2SCAN        
                                                                         
We gratefully acknowledge several colleagues who have allowed us to      
interface, adapt or use parts of their codes:                            
  Ed Valeev, F. Pavosevic, A. Kumar             : LibInt (2-el integral package), F12 methods 
  Garnet Chan, S. Sharma, J. Yang, R. Olivares  : DMRG                   
  Ulf Ekstrom                                   : XCFun DFT Library      
  Mihaly Kallay                                 : mrcc  (arbitrary order and MRCC methods)
  Frank Weinhold                                : gennbo (NPA and NBO analysis)           
  Simon Mueller                                 : openCOSMO-RS                            
  Christopher J. Cramer and Donald G. Truhlar   : smd solvation model                     
  S Lehtola, MJT Oliveira, MAL Marques          : LibXC Library                           
  Liviu Ungur et al                             : ANISO software                          


 Your calculation uses the libint2 library for the computation of 2-el integrals
 For citations please refer to: http://libint.valeyev.net

 Your ORCA version has been built with support for libXC version: 7.0.0
 For citations please refer to: https://libxc.gitlab.io

 This ORCA versions uses:
   CBLAS   interface :  Fast vector & matrix operations
   LAPACKE interface :  Fast linear algebra routines
   SCALAPACK package :  Parallel linear algebra routines
   Shared memory     :  Shared parallel matrices
   BLAS/LAPACK       :  OpenBLAS 0.3.29  USE64BITINT DYNAMIC_ARCH NO_AFFINITY Zen SINGLE_THREADED
        Core in use  :  Zen
   Copyright (c) 2011-2014, The OpenBLAS Project


  ***********************************
  * Starting time: Wed Sep 10 13:36:47 2025
  * Host name:     wyk-Server
  * Process ID:    2301997
  * Working dir.:  /home/wyk/Documents/code/openQDC/MGMR/singlepointcalc/85/react
  ***********************************

Your calculation utilizes the atom-pairwise dispersion correction
with the Becke-Johnson damping scheme (D3BJ)


Warning: RI is on but no J-basis has been assigned. Assigning Def2/J (nothing to worry about!)
================================================================================

----- Orbital basis set information -----
Your calculation utilizes the basis: def2-SVP
   F. Weigend and R. Ahlrichs, Phys. Chem. Chem. Phys. 7, 3297 (2005).

----- AuxJ basis set information -----
Your calculation utilizes the auxiliary basis: def2/J
   H-Rn: F. Weigend, Phys. Chem. Chem. Phys. 8, 1057 (2006).
   Fr-Lr: K. Eichkorn, F. Weigend, O. Treutler, R. Ahlrichs; Theor. Chem. Acc. 97, 119 (1997).

================================================================================
                                        WARNINGS
                       Please study these warnings very carefully!
================================================================================


================================================================================
                                       INPUT FILE
================================================================================
NAME = orca.inp
|  1> ! B3LYP def2-SVP d3 EnGrad 
|  2> %pal nprocs 6 end 
|  3> *xyz 0 1 
|  4> C   0.71885272760508 1.02183982399448 -0.0851787261123
|  5> C   0.52189292614472 0.24825189776914 1.18273966680344
|  6> C   0.99542878559077 0.60620257971682 2.38153459287079
|  7> C   0.79600440113384 -0.1534631224701 3.66229647585148
|  8> O   0.31995840874608 -1.47898886900408 3.50031607236375
|  9> Cl   -1.54905685029515 -2.99259837827198 1.48479619661192
| 10> S   -2.23794138517829 -1.84999619756799 3.23951934447691
| 11> O   -2.37825242666304 -0.44623168197773 2.87078225573807
| 12> Cl   -4.2449144870587 -2.67664373017174 3.25083686994929
| 13> H   -0.25380171275138 1.32409149414356 -0.51182375412392
| 14> H   1.21792585044655 0.40771036951127 -0.85553700246329
| 15> H   1.32162172581311 1.92927180652838 0.07486564654427
| 16> H   -0.07612209512849 -0.66580882121032 1.09791811923607
| 17> H   1.57438441244619 1.53363777703031 2.48049233502366
| 18> H   1.74070129643076 -0.1553634127726 4.24295484870055
| 19> H   0.04798964601903 0.36202289358456 4.29195440630575
| 20> H   0.77408077669894 -1.88728742883201 2.74795265222353
| 21> *
| 22> 
| 23>                          ****END OF INPUT****
================================================================================

                     *******************************
                     * Energy+Gradient Calculation *
                     *******************************

---------------------------------
CARTESIAN COORDINATES (ANGSTROEM)
---------------------------------
  C      0.718853    1.021840   -0.085179
  C      0.521893    0.248252    1.182740
  C      0.995429    0.606203    2.381535
  C      0.796004   -0.153463    3.662296
  O      0.319958   -1.478989    3.500316
  Cl    -1.549057   -2.992598    1.484796
  S     -2.237941   -1.849996    3.239519
  O     -2.378252   -0.446232    2.870782
  Cl    -4.244914   -2.676644    3.250837
  H     -0.253802    1.324091   -0.511824
  H      1.217926    0.407710   -0.855537
  H      1.321622    1.929272    0.074866
  H     -0.076122   -0.665809    1.097918
  H      1.574384    1.533638    2.480492
  H      1.740701   -0.155363    4.242955
  H      0.047990    0.362023    4.291954
  H      0.774081   -1.887287    2.747953

----------------------------
CARTESIAN COORDINATES (A.U.)
----------------------------
  NO LB      ZA    FRAG     MASS         X           Y           Z
   0 C     6.0000    0    12.011    1.358435    1.930997   -0.160964
   1 C     6.0000    0    12.011    0.986235    0.469128    2.235054
   2 C     6.0000    0    12.011    1.881088    1.145557    4.500448
   3 C     6.0000    0    12.011    1.504230   -0.290003    6.920737
   4 O     8.0000    0    15.999    0.604634   -2.794884    6.614639
   5 Cl   17.0000    0    35.453   -2.927293   -5.655191    2.805858
   6 S    16.0000    0    32.060   -4.229096   -3.495986    6.121804
   7 O     8.0000    0    15.999   -4.494246   -0.843256    5.424992
   8 Cl   17.0000    0    35.453   -8.021726   -5.058124    6.143191
   9 H     1.0000    0     1.008   -0.479616    2.502170   -0.967207
  10 H     1.0000    0     1.008    2.301546    0.770461   -1.616731
  11 H     1.0000    0     1.008    2.497503    3.645795    0.141476
  12 H     1.0000    0     1.008   -0.143850   -1.258196    2.074765
  13 H     1.0000    0     1.008    2.975155    2.898155    4.687451
  14 H     1.0000    0     1.008    3.289449   -0.293594    8.018023
  15 H     1.0000    0     1.008    0.090687    0.684124    8.110618
  16 H     1.0000    0     1.008    1.462801   -3.566456    5.192878

--------------------------------
INTERNAL COORDINATES (ANGSTROEM)
--------------------------------
 C      0   0   0     0.000000000000     0.00000000     0.00000000
 C      1   0   0     1.498281847346     0.00000000     0.00000000
 C      2   1   0     1.337712291808   125.00691753     0.00000000
 C      3   2   1     1.502402431139   125.56750503   179.46167717
 O      4   3   2     1.417700935567   114.83017757    14.19311673
 Cl     5   4   3     3.137921629778   136.41801505   327.68966755
 S      6   5   4     2.204349103795    54.88741547   275.49423991
 O      7   6   5     1.458152613482   109.13399428    85.83763671
 Cl     7   6   5     2.170579475904    95.49167496   195.10729662
 H      1   2   3     1.104281989521   110.63938504   240.05867901
 H      1   2   3     1.104391616570   111.25903106   122.12549869
 H      1   2   3     1.101080137567   111.99166040     0.89332100
 H      2   1   3     1.095592834305   115.91285669   178.71524642
 H      3   2   1     1.097778801861   119.57320114     0.19822620
 H      4   3   2     1.108882311630   109.52244118   138.70395645
 H      4   3   2     1.105314894499   109.85500083   254.98706881
 H      5   4   3     0.969012670195   108.98409604    41.00453627

---------------------------
INTERNAL COORDINATES (A.U.)
---------------------------
 C      0   0   0     0.000000000000     0.00000000     0.00000000
 C      1   0   0     2.831342362910     0.00000000     0.00000000
 C      2   1   0     2.527909877496   125.00691753     0.00000000
 C      3   2   1     2.839129137790   125.56750503   179.46167717
 O      4   3   2     2.679066508025   114.83017757    14.19311673
 Cl     5   4   3     5.929812509987   136.41801505   327.68966755
 S      6   5   4     4.165616109728    54.88741547   275.49423991
 O      7   6   5     2.755509100943   109.13399428    85.83763671
 Cl     7   6   5     4.101800761368    95.49167496   195.10729662
 H      1   2   3     2.086790534816   110.63938504   240.05867901
 H      1   2   3     2.086997699915   111.25903106   122.12549869
 H      1   2   3     2.080739911502   111.99166040     0.89332100
 H      2   1   3     2.070370411124   115.91285669   178.71524642
 H      3   2   1     2.074501291142   119.57320114     0.19822620
 H      4   3   2     2.095483883731   109.52244118   138.70395645
 H      4   3   2     2.088742442347   109.85500083   254.98706881
 H      5   4   3     1.831168566968   108.98409604    41.00453627

---------------------
BASIS SET INFORMATION
---------------------
There are 5 groups of distinct atoms

 Group   1 Type C   : 7s4p1d contracted to 3s2p1d pattern {511/31/1}
 Group   2 Type O   : 7s4p1d contracted to 3s2p1d pattern {511/31/1}
 Group   3 Type Cl  : 10s7p1d contracted to 4s3p1d pattern {5311/511/1}
 Group   4 Type S   : 10s7p1d contracted to 4s3p1d pattern {5311/511/1}
 Group   5 Type H   : 4s1p contracted to 2s1p pattern {31/1}

Atom   0C    basis set group =>   1
Atom   1C    basis set group =>   1
Atom   2C    basis set group =>   1
Atom   3C    basis set group =>   1
Atom   4O    basis set group =>   2
Atom   5Cl   basis set group =>   3
Atom   6S    basis set group =>   4
Atom   7O    basis set group =>   2
Atom   8Cl   basis set group =>   3
Atom   9H    basis set group =>   5
Atom  10H    basis set group =>   5
Atom  11H    basis set group =>   5
Atom  12H    basis set group =>   5
Atom  13H    basis set group =>   5
Atom  14H    basis set group =>   5
Atom  15H    basis set group =>   5
Atom  16H    basis set group =>   5
---------------------------------
AUXILIARY/J BASIS SET INFORMATION
---------------------------------
There are 5 groups of distinct atoms

 Group   1 Type C   : 12s5p4d2f1g contracted to 6s4p3d1f1g pattern {711111/2111/211/2/1}
 Group   2 Type O   : 12s5p4d2f1g contracted to 6s4p3d1f1g pattern {711111/2111/211/2/1}
 Group   3 Type Cl  : 14s5p5d2f1g contracted to 8s4p3d1f1g pattern {71111111/2111/311/2/1}
 Group   4 Type S   : 14s5p5d2f1g contracted to 8s4p3d1f1g pattern {71111111/2111/311/2/1}
 Group   5 Type H   : 5s2p1d contracted to 3s1p1d pattern {311/2/1}

Atom   0C    basis set group =>   1
Atom   1C    basis set group =>   1
Atom   2C    basis set group =>   1
Atom   3C    basis set group =>   1
Atom   4O    basis set group =>   2
Atom   5Cl   basis set group =>   3
Atom   6S    basis set group =>   4
Atom   7O    basis set group =>   2
Atom   8Cl   basis set group =>   3
Atom   9H    basis set group =>   5
Atom  10H    basis set group =>   5
Atom  11H    basis set group =>   5
Atom  12H    basis set group =>   5
Atom  13H    basis set group =>   5
Atom  14H    basis set group =>   5
Atom  15H    basis set group =>   5
Atom  16H    basis set group =>   5


           ************************************************************
           *        Program running with 6 parallel MPI-processes     *
           *              working on a common directory               *
           ************************************************************
------------------------------------------------------------------------------
                             ORCA STARTUP CALCULATIONS
                           -- RI-GTO INTEGRALS CHOSEN --
------------------------------------------------------------------------------
------------------------------------------------------------------------------
                   ___                                                        
                  /   \      - P O W E R E D   B Y -                         
                 /     \                                                     
                 |  |  |   _    _      __       _____    __    __             
                 |  |  |  | |  | |    /  \     |  _  \  |  |  /  |          
                  \  \/   | |  | |   /    \    | | | |  |  | /  /          
                 / \  \   | |__| |  /  /\  \   | |_| |  |  |/  /          
                |  |  |   |  __  | /  /__\  \  |    /   |      \           
                |  |  |   | |  | | |   __   |  |    \   |  |\   \          
                \     /   | |  | | |  |  |  |  | |\  \  |  | \   \       
                 \___/    |_|  |_| |__|  |__|  |_| \__\ |__|  \__/        
                                                                              
                      - O R C A' S   B I G   F R I E N D -                    
                                      &                                       
                       - I N T E G R A L  F E E D E R -                       
                                                                              
 v1 FN, 2020, v2 2021, v3 2022-2024                                           
------------------------------------------------------------------------------


----------------------
SHARK INTEGRAL PACKAGE
----------------------

Number of atoms                             ...     17
Number of basis functions                   ...    178
Number of shells                            ...     84
Maximum angular momentum                    ...      2
Integral batch strategy                     ... SHARK/LIBINT Hybrid
RI-J (if used) integral strategy            ... SPLIT-RIJ (Revised 2003 algorithm where possible)
Printlevel                                  ...      1
Contraction scheme used                     ... SEGMENTED contraction
Prescreening option                         ... SCHWARTZ
   Thresh                                   ... 2.500e-11
   Tcut                                     ... 2.500e-12
   Tpresel                                  ... 2.500e-12 
Coulomb Range Separation                    ... NOT USED
Exchange Range Separation                   ... NOT USED
Multipole approximations                    ... NOT USED
Finite Nucleus Model                        ... NOT USED
CABS basis                                  ... NOT available
Auxiliary Coulomb fitting basis             ... AVAILABLE
   # of basis functions in Aux-J            ...    535
   # of shells in Aux-J                     ...    181
   Maximum angular momentum in Aux-J        ...      4
Auxiliary J/K fitting basis                 ... NOT available
Auxiliary Correlation fitting basis         ... NOT available
Auxiliary 'external' fitting basis          ... NOT available

Checking pre-screening integrals            ... done (  0.0 sec) Dimension = 84
   => SHARK Basis and OBASIS are compatible. Storing Pre-screening
Shell pair information
Shell pair cut-off parameter TPreSel        ...   2.5e-12
Total number of shell pairs                 ...      3570
Shell pairs after pre-screening             ...      3023
Total number of primitive shell pairs       ...     14032
Primitive shell pairs kept                  ...      7929
          la=0 lb=0:    926 shell pairs
          la=1 lb=0:   1134 shell pairs
          la=1 lb=1:    364 shell pairs
          la=2 lb=0:    347 shell pairs
          la=2 lb=1:    213 shell pairs
          la=2 lb=2:     39 shell pairs

Checking whether 4 symmetric matrices of dimension 178 fit in memory
:Max Core in MB      =   4096.00
 MB in use           =      7.22
 MB left             =   4088.78
 MB needed           =      0.49
 Data fit in memory  = YES
Calculating RI/J V-Matrix + Cholesky decomp.... done (  0.0 sec)
Calculating Nuclear repulsion               ... done (  0.0 sec) ENN=    734.212778252928 Eh

Diagonalization of the overlap matrix:
Smallest eigenvalue                        ... 1.631e-03
Time for diagonalization                   ...    0.005 sec
Threshold for overlap eigenvalues          ... 1.000e-07
Number of eigenvalues below threshold      ... 0
Time for construction of square roots      ...    0.002 sec
Total time needed                          ...    0.008 sec

-------------------
DFT GRID GENERATION
-------------------

General Integration Accuracy     IntAcc      ... 4.388
Radial Grid Type                 RadialGrid  ... OptM3 with GC (2021)
Angular Grid (max. ang.)         AngularGrid ... 4 (Lebedev-302)
Angular grid pruning method      GridPruning ... 4 (adaptive)
Weight generation scheme         WeightScheme... mBecke (2022)
Basis function cutoff            BFCut       ... 1.0000e-11
Integration weight cutoff        WCut        ... 1.0000e-14
Partially contracted basis set               ... off
Rotationally invariant grid construction     ... off
Angular grids for H and He will be reduced by one unit

Total number of grid points                  ...    84046
Total number of batches                      ...     1322
Average number of points per batch           ...       63
Average number of grid points per atom       ...     4944

--------------------
COSX GRID GENERATION
--------------------

GRIDX 1
-------
General Integration Accuracy     IntAcc      ... 3.816
Radial Grid Type                 RadialGrid  ... OptM3 with GC (2021)
Angular Grid (max. ang.)         AngularGrid ... 1 (Lebedev-50)
Angular grid pruning method      GridPruning ... 4 (adaptive)
Weight generation scheme         WeightScheme... mBecke (2022)
Basis function cutoff            BFCut       ... 1.0000e-11
Integration weight cutoff        WCut        ... 1.0000e-14
Partially contracted basis set               ... on
Rotationally invariant grid construction     ... off
Angular grids for H and He will be reduced by one unit

Total number of grid points                  ...    13839
Total number of batches                      ...      118
Average number of points per batch           ...      117
Average number of grid points per atom       ...      814
UseSFitting                                  ... on

GRIDX 2
-------
General Integration Accuracy     IntAcc      ... 4.020
Radial Grid Type                 RadialGrid  ... OptM3 with GC (2021)
Angular Grid (max. ang.)         AngularGrid ... 2 (Lebedev-110)
Angular grid pruning method      GridPruning ... 4 (adaptive)
Weight generation scheme         WeightScheme... mBecke (2022)
Basis function cutoff            BFCut       ... 1.0000e-11
Integration weight cutoff        WCut        ... 1.0000e-14
Partially contracted basis set               ... on
Rotationally invariant grid construction     ... off
Angular grids for H and He will be reduced by one unit

Total number of grid points                  ...    22807
Total number of batches                      ...      186
Average number of points per batch           ...      122
Average number of grid points per atom       ...     1342
UseSFitting                                  ... on

GRIDX 3
-------
General Integration Accuracy     IntAcc      ... 4.338
Radial Grid Type                 RadialGrid  ... OptM3 with GC (2021)
Angular Grid (max. ang.)         AngularGrid ... 3 (Lebedev-194)
Angular grid pruning method      GridPruning ... 4 (adaptive)
Weight generation scheme         WeightScheme... mBecke (2022)
Basis function cutoff            BFCut       ... 1.0000e-11
Integration weight cutoff        WCut        ... 1.0000e-14
Partially contracted basis set               ... on
Rotationally invariant grid construction     ... off
Angular grids for H and He will be reduced by one unit

Total number of grid points                  ...    51817
Total number of batches                      ...      414
Average number of points per batch           ...      125
Average number of grid points per atom       ...     3048
UseSFitting                                  ... on
Grids setup in   1.2 sec
Initializing property integral containers    ... done (  0.0 sec)

SHARK setup successfully completed in   1.3 seconds

Maximum memory used throughout the entire STARTUP-calculation: 23.9 MB


           ************************************************************
           *        Program running with 6 parallel MPI-processes     *
           *              working on a common directory               *
           ************************************************************
-------------------------------------------------------------------------------
                                 ORCA GUESS
                   Start orbitals & Density for SCF / CASSCF
-------------------------------------------------------------------------------

------------
SCF SETTINGS
------------
Hamiltonian:
 Density Functional     Method          .... DFT(GTOs)
 Exchange Functional    Exchange        .... B88
   X-Alpha parameter    XAlpha          ....  0.666667
   Becke's b parameter  XBeta           ....  0.004200
 Correlation Functional Correlation     .... LYP
 LDA part of GGA corr.  LDAOpt          .... VWN-5
 Gradients option       PostSCFGGA      .... off
 Hybrid DFT is turned on
   Fraction HF Exchange ScalHFX         ....  0.200000
   Scaling of DF-GGA-X  ScalDFX         ....  0.720000
   Scaling of DF-GGA-C  ScalDFC         ....  0.810000
   Scaling of DF-LDA-C  ScalLDAC        ....  1.000000
   Perturbative correction              ....  0.000000
   NL short-range parameter             ....  4.800000
 RI-approximation to the Coulomb term is turned on
   Number of AuxJ basis functions       .... 535
   RIJ-COSX (HFX calculated with COS-X)).... on


General Settings:
 Integral files         IntName         .... orca
 Hartree-Fock type      HFTyp           .... RHF
 Total Charge           Charge          ....    0
 Multiplicity           Mult            ....    1
 Number of Electrons    NEL             ....   98
 Basis Dimension        Dim             ....  178
 Nuclear Repulsion      ENuc            ....    734.2127782529 Eh

Convergence Acceleration:
 AO-DIIS                CNVDIIS         .... on
   Start iteration      DIISMaxIt       ....    12
   Startup error        DIISStart       ....  0.200000
   # of expansion vecs  DIISMaxEq       ....     5
   Bias factor          DIISBfac        ....   1.050
   Max. coefficient     DIISMaxC        ....  10.000
 MO-DIIS                CNVKDIIS        .... off
 Trust-Rad. Augm. Hess. CNVTRAH         .... auto
   Auto Start mean grad. ratio tolernc. ....  1.125000
   Auto Start start iteration           ....    50
   Auto Start num. interpolation iter.  ....    10
   Max. Number of Micro iterations      ....    24
   Max. Number of Macro iterations      .... Maxiter - #DIIS iter
   Number of Davidson start vectors     ....     2
   Converg. threshold    (grad. norm)   ....   1.000e-05
   Grad. Scal. Fac. for Micro threshold ....   0.100
   Minimum threshold for Micro iter.    ....   1.000e-02
   NR start threshold (gradient norm)   ....   1.000e-04
   Initial trust radius                 ....   0.400
   Minimum AH scaling param. (alpha)    ....   1.000
   Maximum AH scaling param. (alpha)    .... 1000.000
   Quad. conv. algorithm                .... NR
   White noise on init. David. guess    .... on
   Maximum white noise                  ....   0.010
   Pseudo random numbers                .... off
   Inactive MOs                         .... canonical
   Orbital update algorithm             .... Taylor
   Preconditioner                       .... Diag
   Full preconditioner red. dimension   ....   250
 SOSCF                 CNVSOSCF           .... on
   Start iteration     SOSCFMaxIt         ....   150
   Startup grad/error  SOSCFStart         ....  0.003300
   Hessian update      SOSCFHessUp        .... L-BFGS
   Autom. constraints  SOSCFAutoConstrain .... off
 Level Shifting         CNVShift        .... on
   Level shift para.    LevelShift      ....    0.2500
   Turn off err/grad.   ShiftErr        ....    0.0010
 Zerner damping         CNVZerner       .... off
 Static damping         CNVDamp         .... on
   Fraction old density DampFac         ....    0.7000
   Max. Damping (<1)    DampMax         ....    0.9800
   Min. Damping (>=0)   DampMin         ....    0.0000
   Turn off err/grad.   DampErr         ....    0.1000

SCF Procedure:
 Maximum # iterations   MaxIter         ....   125
 SCF integral mode      SCFMode         .... Direct
   Integral package                     .... SHARK and LIBINT hybrid scheme
 Reset frequency        DirectResetFreq ....    20
 Integral Threshold     Thresh          ....  2.500e-11 Eh
 Primitive CutOff       TCut            ....  2.500e-12 Eh

Convergence Tolerance:
 Convergence Check Mode ConvCheckMode   .... Total+1el-Energy
 Convergence forced     ConvForced      .... 0
 Energy Change          TolE            ....  1.000e-08 Eh
 1-El. energy change                    ....  1.000e-05 Eh
 Orbital Gradient       TolG            ....  1.000e-05
 Orbital Rotation angle TolX            ....  1.000e-05
 DIIS Error             TolErr          ....  5.000e-07

------------------------------
INITIAL GUESS: MODEL POTENTIAL
------------------------------
Loading Hartree-Fock densities                     ... done
Calculating cut-offs                               ... done
Initializing the effective Hamiltonian             ... done
Setting up the integral package (SHARK)            ... done
Starting the Coulomb interaction                   ... done (   0.1 sec)
Making the grid                                    ... done (   0.2 sec)
Mapping shells                                     ... done
Starting the XC term evaluation                    ... done (   0.0 sec)
  promolecular density results
     # of electrons  =     97.996683480
     EX              =   -119.364109063
     EC              =     -3.696178528
     EX+EC           =   -123.060287591
Transforming the Hamiltonian                       ... done (   0.0 sec)
Diagonalizing the Hamiltonian                      ... done (   0.0 sec)
Back transforming the eigenvectors                 ... done (   0.0 sec)
Now organizing SCF variables                       ... done
                      ------------------
                      INITIAL GUESS DONE (   0.3 sec)
                      ------------------
             **** ENERGY FILE WAS UPDATED (orca.en.tmp) ****
Finished Guess after   0.4 sec
Maximum memory used throughout the entire GUESS-calculation: 10.1 MB


           ************************************************************
           *        Program running with 6 parallel MPI-processes     *
           *              working on a common directory               *
           ************************************************************

-------------------------------------------------------------------------------------------
                                      ORCA LEAN-SCF
                              memory conserving SCF solver
-------------------------------------------------------------------------------------------

----------------------------------------D-I-I-S--------------------------------------------
Iteration    Energy (Eh)           Delta-E    RMSDP     MaxDP     DIISErr   Damp  Time(sec)
-------------------------------------------------------------------------------------------
               ***  Starting incremental Fock matrix formation  ***
    1    -1624.8940251509170594     0.00e+00  1.05e-02  1.53e-01  2.82e-01  0.700   1.3
Warning: op=0 Small HOMO/LUMO gap (   0.075) - skipping pre-diagonalization
         Will do a full diagonalization
    2    -1625.0680163720389828    -1.74e-01  5.61e-03  5.34e-02  9.81e-02  0.700   0.9
                               ***Turning on AO-DIIS***
    3    -1625.1244395713119957    -5.64e-02  2.10e-03  1.54e-02  3.36e-02  0.700   0.7
    4    -1625.1607899683131109    -3.64e-02  3.24e-03  3.51e-02  1.44e-02  0.000   0.7
    5    -1625.2428846150278332    -8.21e-02  8.44e-04  8.21e-03  7.01e-03  0.000   0.7
                              *** Initializing SOSCF ***
---------------------------------------S-O-S-C-F--------------------------------------
Iteration    Energy (Eh)           Delta-E    RMSDP     MaxDP     MaxGrad    Time(sec)
--------------------------------------------------------------------------------------
    6    -1625.2434158983737689    -5.31e-04  3.02e-04  1.67e-03  1.62e-03     0.7
               *** Restarting incremental Fock matrix formation ***
    7    -1625.2434447547834679    -2.89e-05  2.50e-04  2.14e-03  3.35e-04     1.3
    8    -1625.2434390120943135     5.74e-06  1.38e-04  1.45e-03  8.89e-04     1.0
    9    -1625.2434522216822188    -1.32e-05  1.06e-04  1.21e-03  2.90e-04     0.9
   10    -1625.2434500798212866     2.14e-06  5.93e-05  7.97e-04  4.59e-04     0.9
   11    -1625.2434538504171542    -3.77e-06  2.88e-05  3.06e-04  9.39e-05     0.9
   12    -1625.2434537730277953     7.74e-08  1.60e-05  1.67e-04  8.56e-05     0.8
   13    -1625.2434539825871980    -2.10e-07  2.82e-06  2.65e-05  7.34e-06     0.8
   14    -1625.2434539785708694     4.02e-09  1.63e-06  1.83e-05  1.20e-05     0.6
                 **** Energy Check signals convergence ****

               *****************************************************
               *                     SUCCESS                       *
               *           SCF CONVERGED AFTER  14 CYCLES          *
               *****************************************************

Recomputing exchange energy using gridx3       ... done (    2.127 sec)
Old exchange energy                            :    -23.992108995 Eh
New exchange energy                            :    -23.992066460 Eh
Exchange energy change after final integration :      0.000042535 Eh
Total energy after final integration           :  -1625.243411453 Eh
             **** ENERGY FILE WAS UPDATED (orca.en.tmp) ****

----------------
TOTAL SCF ENERGY
----------------

Total Energy       :      -1625.24341145287849 Eh          -44225.12159 eV

Components:
Nuclear Repulsion  :        734.21277825292793 Eh           19978.94541 eV
Electronic Energy  :      -2359.45623224051906 Eh          -64204.06815 eV
One Electron Energy:      -3699.25522523045402 Eh         -100661.85223 eV
Two Electron Energy:       1339.79899298993496 Eh           36457.78408 eV

Virial components:
Potential Energy   :      -3245.03377681790153 Eh          -88301.85825 eV
Kinetic Energy     :       1619.79036536502281 Eh           44076.73666 eV
Virial Ratio       :          2.00336651347264

DFT components:
N(Alpha)           :       49.000001917885 electrons
N(Beta)            :       49.000001917885 electrons
N(Total)           :       98.000003835771 electrons
E(X)               :      -95.316571225907 Eh       
E(C)               :       -4.340236262306 Eh       
E(XC)              :      -99.656807488213 Eh       

---------------
SCF CONVERGENCE
---------------

  Last Energy change         ...   -4.0163e-09  Tolerance :   1.0000e-08
  Last MAX-Density change    ...    1.8299e-05  Tolerance :   1.0000e-07
  Last RMS-Density change    ...    1.6252e-06  Tolerance :   5.0000e-09
  Last DIIS Error            ...    1.6199e-03  Tolerance :   5.0000e-07
  Last Orbital Gradient      ...    1.2048e-05  Tolerance :   1.0000e-05
  Last Orbital Rotation      ...    1.1373e-05  Tolerance :   1.0000e-05


----------------
ORBITAL ENERGIES
----------------

  NO   OCC          E(Eh)            E(eV) 
   0   2.0000    -101.507693     -2762.1647 
   1   2.0000    -101.500755     -2761.9760 
   2   2.0000     -89.045019     -2423.0381 
   3   2.0000     -19.185503      -522.0641 
   4   2.0000     -19.157989      -521.3154 
   5   2.0000     -10.247071      -278.8370 
   6   2.0000     -10.189940      -277.2824 
   7   2.0000     -10.188061      -277.2312 
   8   2.0000     -10.187016      -277.2028 
   9   2.0000      -9.461322      -257.4557 
  10   2.0000      -9.455417      -257.2950 
  11   2.0000      -8.123258      -221.0451 
  12   2.0000      -7.230013      -196.7387 
  13   2.0000      -7.223987      -196.5747 
  14   2.0000      -7.220673      -196.4845 
  15   2.0000      -7.220623      -196.4831 
  16   2.0000      -7.214790      -196.3244 
  17   2.0000      -7.214598      -196.3192 
  18   2.0000      -6.091282      -165.7522 
  19   2.0000      -6.090745      -165.7376 
  20   2.0000      -6.083509      -165.5407 
  21   2.0000      -1.099622       -29.9222 
  22   2.0000      -1.031093       -28.0575 
  23   2.0000      -0.851214       -23.1627 
  24   2.0000      -0.810649       -22.0589 
  25   2.0000      -0.790614       -21.5137 
  26   2.0000      -0.720877       -19.6161 
  27   2.0000      -0.668159       -18.1815 
  28   2.0000      -0.649562       -17.6755 
  29   2.0000      -0.558630       -15.2011 
  30   2.0000      -0.512656       -13.9501 
  31   2.0000      -0.497449       -13.5363 
  32   2.0000      -0.484970       -13.1967 
  33   2.0000      -0.472068       -12.8456 
  34   2.0000      -0.470919       -12.8144 
  35   2.0000      -0.443569       -12.0701 
  36   2.0000      -0.420406       -11.4398 
  37   2.0000      -0.410067       -11.1585 
  38   2.0000      -0.390637       -10.6298 
  39   2.0000      -0.367625       -10.0036 
  40   2.0000      -0.355059        -9.6617 
  41   2.0000      -0.345373        -9.3981 
  42   2.0000      -0.344101        -9.3635 
  43   2.0000      -0.327215        -8.9040 
  44   2.0000      -0.316444        -8.6109 
  45   2.0000      -0.307881        -8.3779 
  46   2.0000      -0.299867        -8.1598 
  47   2.0000      -0.295884        -8.0514 
  48   2.0000      -0.251953        -6.8560 
  49   0.0000      -0.105762        -2.8779 
  50   0.0000      -0.081220        -2.2101 
  51   0.0000       0.011090         0.3018 
  52   0.0000       0.030802         0.8382 
  53   0.0000       0.062044         1.6883 
  54   0.0000       0.075840         2.0637 
  55   0.0000       0.078504         2.1362 
  56   0.0000       0.110272         3.0007 
  57   0.0000       0.129183         3.5152 
  58   0.0000       0.137242         3.7346 
  59   0.0000       0.151468         4.1217 
*Only the first 10 virtual orbitals were printed.

                    ********************************
                    * MULLIKEN POPULATION ANALYSIS *
                    ********************************

-----------------------
MULLIKEN ATOMIC CHARGES
-----------------------
   0 C :    0.059625
   1 C :   -0.091303
   2 C :   -0.119894
   3 C :    0.269385
   4 O :   -0.331611
   5 Cl:   -0.197215
   6 S :    0.728633
   7 O :   -0.360382
   8 Cl:   -0.196681
   9 H :    0.030578
  10 H :    0.022514
  11 H :    0.008540
  12 H :   -0.022649
  13 H :   -0.006714
  14 H :    0.007311
  15 H :    0.023698
  16 H :    0.176165
Sum of atomic charges:    0.0000000

--------------------------------
MULLIKEN REDUCED ORBITAL CHARGES
--------------------------------
  0 C s       :     2.956646  s :     2.956646
      pz      :     0.973315  p :     2.954774
      px      :     1.002660
      py      :     0.978800
      dz2     :     0.005655  d :     0.028955
      dxz     :     0.006110
      dyz     :     0.007361
      dx2y2   :     0.003618
      dxy     :     0.006211

  1 C s       :     3.167027  s :     3.167027
      pz      :     0.967387  p :     2.888644
      px      :     0.960763
      py      :     0.960494
      dz2     :     0.011310  d :     0.035632
      dxz     :     0.008235
      dyz     :     0.009379
      dx2y2   :     0.002507
      dxy     :     0.004202

  2 C s       :     3.169698  s :     3.169698
      pz      :     0.947585  p :     2.916862
      px      :     1.003589
      py      :     0.965688
      dz2     :     0.009930  d :     0.033334
      dxz     :     0.008097
      dyz     :     0.009158
      dx2y2   :     0.002321
      dxy     :     0.003828

  3 C s       :     2.928765  s :     2.928765
      pz      :     1.006875  p :     2.738728
      px      :     0.983908
      py      :     0.747945
      dz2     :     0.008483  d :     0.063122
      dxz     :     0.011226
      dyz     :     0.014210
      dx2y2   :     0.016113
      dxy     :     0.013090

  4 O s       :     3.728629  s :     3.728629
      pz      :     1.572173  p :     4.590656
      px      :     1.664400
      py      :     1.354083
      dz2     :     0.002307  d :     0.012326
      dxz     :     0.002660
      dyz     :     0.001912
      dx2y2   :     0.002320
      dxy     :     0.003126

  5 Cls       :     5.970951  s :     5.970951
      pz      :     3.570379  p :    11.208293
      px      :     3.866729
      py      :     3.771185
      dz2     :     0.004391  d :     0.017971
      dxz     :     0.003492
      dyz     :     0.006972
      dx2y2   :     0.001320
      dxy     :     0.001796

  6 S s       :     5.846382  s :     5.846382
      pz      :     3.169771  p :     9.105874
      px      :     3.044318
      py      :     2.891785
      dz2     :     0.039861  d :     0.319111
      dxz     :     0.023133
      dyz     :     0.089905
      dx2y2   :     0.070553
      dxy     :     0.095659

  7 O s       :     3.878348  s :     3.878348
      pz      :     1.582655  p :     4.463413
      px      :     1.621422
      py      :     1.259335
      dz2     :     0.002363  d :     0.018621
      dxz     :     0.000407
      dyz     :     0.005292
      dx2y2   :     0.005601
      dxy     :     0.004957

  8 Cls       :     5.967818  s :     5.967818
      pz      :     3.936931  p :    11.209307
      px      :     3.418423
      py      :     3.853953
      dz2     :     0.003409  d :     0.019556
      dxz     :     0.002807
      dyz     :     0.000413
      dx2y2   :     0.006374
      dxy     :     0.006552

  9 H s       :     0.946023  s :     0.946023
      pz      :     0.005845  p :     0.023399
      px      :     0.011977
      py      :     0.005576

 10 H s       :     0.954121  s :     0.954121
      pz      :     0.008900  p :     0.023365
      px      :     0.007137
      py      :     0.007328

 11 H s       :     0.968561  s :     0.968561
      pz      :     0.004304  p :     0.022900
      px      :     0.007620
      py      :     0.010976

 12 H s       :     0.998580  s :     0.998580
      pz      :     0.003825  p :     0.024069
      px      :     0.008200
      py      :     0.012044

 13 H s       :     0.984188  s :     0.984188
      pz      :     0.003416  p :     0.022526
      px      :     0.007403
      py      :     0.011708

 14 H s       :     0.971747  s :     0.971747
      pz      :     0.007012  p :     0.020942
      px      :     0.011639
      py      :     0.002292

 15 H s       :     0.954994  s :     0.954994
      pz      :     0.007566  p :     0.021307
      px      :     0.009150
      py      :     0.004591

 16 H s       :     0.757284  s :     0.757284
      pz      :     0.029449  p :     0.066551
      px      :     0.019166
      py      :     0.017936



                     *******************************
                     * LOEWDIN POPULATION ANALYSIS *
                     *******************************

----------------------
LOEWDIN ATOMIC CHARGES
----------------------
   0 C :   -0.051446
   1 C :   -0.038754
   2 C :   -0.073848
   3 C :    0.073805
   4 O :   -0.134853
   5 Cl:   -0.176686
   6 S :    0.758618
   7 O :   -0.406574
   8 Cl:   -0.183804
   9 H :    0.036684
  10 H :    0.032433
  11 H :    0.026204
  12 H :    0.002699
  13 H :    0.024419
  14 H :    0.015006
  15 H :    0.027061
  16 H :    0.069036

-------------------------------
LOEWDIN REDUCED ORBITAL CHARGES
-------------------------------
  0 C s       :     2.835841  s :     2.835841
      pz      :     1.029062  p :     3.141984
      px      :     1.061719
      py      :     1.051203
      dz2     :     0.014202  d :     0.073621
      dxz     :     0.015027
      dyz     :     0.019682
      dx2y2   :     0.008794
      dxy     :     0.015916

  1 C s       :     2.874992  s :     2.874992
      pz      :     1.059850  p :     3.074995
      px      :     0.986605
      py      :     1.028540
      dz2     :     0.030376  d :     0.088767
      dxz     :     0.018539
      dyz     :     0.024461
      dx2y2   :     0.005247
      dxy     :     0.010143

  2 C s       :     2.881665  s :     2.881665
      pz      :     1.058250  p :     3.105670
      px      :     1.018168
      py      :     1.029253
      dz2     :     0.028105  d :     0.086512
      dxz     :     0.018350
      dyz     :     0.025367
      dx2y2   :     0.004979
      dxy     :     0.009712

  3 C s       :     2.839402  s :     2.839402
      pz      :     1.049650  p :     2.943770
      px      :     1.050094
      py      :     0.844026
      dz2     :     0.018750  d :     0.143024
      dxz     :     0.028192
      dyz     :     0.032590
      dx2y2   :     0.034594
      dxy     :     0.028898

  4 O s       :     3.445425  s :     3.445425
      pz      :     1.599863  p :     4.666138
      px      :     1.683023
      py      :     1.383252
      dz2     :     0.004146  d :     0.023290
      dxz     :     0.004789
      dyz     :     0.004318
      dx2y2   :     0.004404
      dxy     :     0.005633

  5 Cls       :     5.934527  s :     5.934527
      pz      :     3.575399  p :    11.220585
      px      :     3.867849
      py      :     3.777337
      dz2     :     0.005454  d :     0.021574
      dxz     :     0.004066
      dyz     :     0.008434
      dx2y2   :     0.001500
      dxy     :     0.002119

  6 S s       :     5.680238  s :     5.680238
      pz      :     3.169279  p :     9.150506
      px      :     3.029481
      py      :     2.951747
      dz2     :     0.052997  d :     0.410637
      dxz     :     0.028426
      dyz     :     0.113237
      dx2y2   :     0.099505
      dxy     :     0.116471

  7 O s       :     3.713236  s :     3.713236
      pz      :     1.606622  p :     4.663114
      px      :     1.636249
      py      :     1.420244
      dz2     :     0.003995  d :     0.030224
      dxz     :     0.000511
      dyz     :     0.008011
      dx2y2   :     0.011430
      dxy     :     0.006276

  8 Cls       :     5.929708  s :     5.929708
      pz      :     3.936595  p :    11.230429
      px      :     3.435233
      py      :     3.858601
      dz2     :     0.004254  d :     0.023667
      dxz     :     0.003172
      dyz     :     0.000472
      dx2y2   :     0.007938
      dxy     :     0.007832

  9 H s       :     0.899608  s :     0.899608
      pz      :     0.016232  p :     0.063708
      px      :     0.033549
      py      :     0.013927

 10 H s       :     0.904097  s :     0.904097
      pz      :     0.025456  p :     0.063469
      px      :     0.017790
      py      :     0.020223

 11 H s       :     0.910525  s :     0.910525
      pz      :     0.011994  p :     0.063271
      px      :     0.020237
      py      :     0.031040

 12 H s       :     0.925475  s :     0.925475
      pz      :     0.011786  p :     0.071826
      px      :     0.023906
      py      :     0.036135

 13 H s       :     0.908241  s :     0.908241
      pz      :     0.010835  p :     0.067340
      px      :     0.022263
      py      :     0.034242

 14 H s       :     0.921985  s :     0.921985
      pz      :     0.020854  p :     0.063009
      px      :     0.033824
      py      :     0.008330

 15 H s       :     0.910292  s :     0.910292
      pz      :     0.021961  p :     0.062647
      px      :     0.025830
      py      :     0.014856

 16 H s       :     0.750738  s :     0.750738
      pz      :     0.077993  p :     0.180226
      px      :     0.058811
      py      :     0.043421



                      *****************************
                      * MAYER POPULATION ANALYSIS *
                      *****************************

  NA   - Mulliken gross atomic population
  ZA   - Total nuclear charge
  QA   - Mulliken gross atomic charge
  VA   - Mayer's total valence
  BVA  - Mayer's bonded valence
  FA   - Mayer's free valence

  ATOM       NA         ZA         QA         VA         BVA        FA
  0 C      5.9404     6.0000     0.0596     3.9529     3.9529     0.0000
  1 C      6.0913     6.0000    -0.0913     4.0631     4.0631    -0.0000
  2 C      6.1199     6.0000    -0.1199     3.9661     3.9661    -0.0000
  3 C      5.7306     6.0000     0.2694     3.9313     3.9313     0.0000
  4 O      8.3316     8.0000    -0.3316     2.1481     2.1481     0.0000
  5 Cl    17.1972    17.0000    -0.1972     1.1254     1.1254    -0.0000
  6 S     15.2714    16.0000     0.7286     3.4701     3.4701    -0.0000
  7 O      8.3604     8.0000    -0.3604     2.1101     2.1101     0.0000
  8 Cl    17.1967    17.0000    -0.1967     1.0951     1.0951     0.0000
  9 H      0.9694     1.0000     0.0306     0.9831     0.9831     0.0000
 10 H      0.9775     1.0000     0.0225     0.9842     0.9842    -0.0000
 11 H      0.9915     1.0000     0.0085     0.9947     0.9947    -0.0000
 12 H      1.0226     1.0000    -0.0226     1.0494     1.0494    -0.0000
 13 H      1.0067     1.0000    -0.0067     0.9927     0.9927    -0.0000
 14 H      0.9927     1.0000     0.0073     0.9758     0.9758    -0.0000
 15 H      0.9763     1.0000     0.0237     0.9881     0.9881    -0.0000
 16 H      0.8238     1.0000     0.1762     1.0357     1.0357    -0.0000

  Mayer bond orders larger than 0.100000
B(  0-C ,  1-C ) :   1.0843 B(  0-C ,  9-H ) :   0.9515 B(  0-C , 10-H ) :   0.9556 
B(  0-C , 11-H ) :   0.9669 B(  1-C ,  2-C ) :   1.9331 B(  1-C , 12-H ) :   0.9407 
B(  2-C ,  3-C ) :   1.0321 B(  2-C , 13-H ) :   0.9443 B(  3-C ,  4-O ) :   1.0153 
B(  3-C , 14-H ) :   0.9411 B(  3-C , 15-H ) :   0.9283 B(  4-O , 16-H ) :   0.9525 
B(  5-Cl,  6-S ) :   0.7927 B(  5-Cl,  7-O ) :   0.1830 B(  6-S ,  7-O ) :   1.7265 
B(  6-S ,  8-Cl) :   0.8486 B(  7-O ,  8-Cl) :   0.1610 

-------
TIMINGS
-------

Total SCF time: 0 days 0 hours 0 min 15 sec 

Total time                  ....      15.262 sec
Sum of individual times     ....      14.623 sec  ( 95.8%)

SCF preparation             ....       0.201 sec  (  1.3%)
Fock matrix formation       ....      14.019 sec  ( 91.9%)
  Startup                   ....       0.007 sec  (  0.0% of F)
  Split-RI-J                ....       1.354 sec  (  9.7% of F)
  Chain of spheres X        ....      10.844 sec  ( 77.4% of F)
  XC integration            ....       2.201 sec  ( 15.7% of F)
    XC Preparation          ....       0.000 sec  (  0.0% of XC)
    Basis function eval.    ....       0.722 sec  ( 32.8% of XC)
    Density eval.           ....       0.405 sec  ( 18.4% of XC)
    XC-Functional eval.     ....       0.135 sec  (  6.2% of XC)
    XC-Potential eval.      ....       0.393 sec  ( 17.9% of XC)
Diagonalization             ....       0.000 sec  (  0.0%)
Density matrix formation    ....       0.050 sec  (  0.3%)
Total Energy calculation    ....       0.026 sec  (  0.2%)
Population analysis         ....       0.025 sec  (  0.2%)
Orbital Transformation      ....       0.033 sec  (  0.2%)
Orbital Orthonormalization  ....       0.000 sec  (  0.0%)
DIIS solution               ....       0.131 sec  (  0.9%)
SOSCF solution              ....       0.137 sec  (  0.9%)
Finished LeanSCF after  15.3 sec

Maximum memory used throughout the entire LEANSCF-calculation: 15.1 MB


-------------------------------------------------------------------------------
                          DFT DISPERSION CORRECTION                            
                                                                               
                              DFTD3 V3.1  Rev 1                                
                          USING Becke-Johnson damping                          
-------------------------------------------------------------------------------
The B3LYP functional is recognized
Active option DFTDOPT                   ...         4   

molecular C6(AA) [au] = 4830.834257 


            DFT-D V3
 parameters
 s6 scaling factor         :     1.0000 
 a1 scaling factor         :     0.3981 
 s8 scaling factor         :     1.9889 
 a2 scaling factor         :     4.4211 
 ad hoc parameters k1-k3   :    16.0000     1.3333    -4.0000 

 Edisp/kcal,au: -19.587424265448  -0.031214544139 
 E6   /kcal   :  -8.804314466 
 E8   /kcal   : -10.783109800 
 % E8         :  55.051188218 

-------------------------   ----------------
Dispersion correction           -0.031214544
-------------------------   ----------------


-------------------------   --------------------
FINAL SINGLE POINT ENERGY     -1625.274625997018
-------------------------   --------------------



           ************************************************************
           *        Program running with 6 parallel MPI-processes     *
           *              working on a common directory               *
           ************************************************************
------------------------------------------------------------------------------
                         ORCA SCF GRADIENT CALCULATION
------------------------------------------------------------------------------

Nuc. rep. gradient        (SHARK) ... done (  0.0 sec)
HCore & Overlap gradient  (SHARK) ... done (  0.1 sec)
Split-RIJ-J gradient      (SHARK) ... done (  0.4 sec)
done (  5.4 sec)
XC gradient                       ... done (  1.1 sec)
Dispersion correction             ... done (  0.0 sec)

-------------------
DISPERSION GRADIENT
-------------------

   1   C   :    0.000076122    0.000209770   -0.000408254
   2   C   :    0.000439194    0.000505433   -0.000583442
   3   C   :    0.000500489    0.000403623    0.000186668
   4   C   :    0.000534494    0.000224402    0.000454001
   5   O   :    0.000369747   -0.000142336    0.000396428
   6   Cl  :   -0.000222844   -0.001159826   -0.000701801
   7   S   :   -0.001255764   -0.000662963    0.000348357
   8   O   :   -0.000675286    0.000296443    0.000169768
   9   Cl  :   -0.000778165   -0.000213850    0.000309598
  10   H   :   -0.000044320    0.000109160   -0.000212505
  11   H   :    0.000053437    0.000031788   -0.000221493
  12   H   :    0.000049597    0.000130321   -0.000165238
  13   H   :    0.000153075    0.000067104   -0.000311743
  14   H   :    0.000148620    0.000195116    0.000088619
  15   H   :    0.000157823    0.000021630    0.000213673
  16   H   :    0.000149360    0.000197393    0.000332285
  17   H   :    0.000344420   -0.000213208    0.000105078

Difference to translation invariance:
           :    0.0000000000    0.0000000000   -0.0000000000

Difference to rotation invariance:
           :   -0.0000000000    0.0000000000    0.0000000000

Norm of the Dispersion gradient    ...    0.0029024936
RMS gradient                       ...    0.0004064304
MAX gradient                       ...    0.0012557637

------------------
CARTESIAN GRADIENT
------------------

   1   C   :    0.000007752    0.000062758    0.000155143
   2   C   :   -0.000015864   -0.000019934   -0.000023126
   3   C   :   -0.000039500   -0.000099101    0.000001122
   4   C   :   -0.000008611    0.000004197   -0.000190390
   5   O   :    0.000098374   -0.000035209    0.000112954
   6   Cl  :    0.000182490   -0.000132476   -0.000079782
   7   S   :   -0.000089400    0.000115021    0.000035397
   8   O   :   -0.000168294    0.000076307    0.000131815
   9   Cl  :    0.000092788    0.000097832   -0.000039879
  10   H   :   -0.000051305   -0.000024554   -0.000011488
  11   H   :   -0.000000761   -0.000031372   -0.000034838
  12   H   :    0.000012727   -0.000004450   -0.000035101
  13   H   :    0.000063929    0.000034199   -0.000013630
  14   H   :   -0.000018319   -0.000027667    0.000000593
  15   H   :   -0.000003802    0.000013373    0.000018413
  16   H   :   -0.000049392   -0.000016910    0.000020413
  17   H   :   -0.000012812   -0.000012014   -0.000047617

Difference to translation invariance:
           :    0.0000000001    0.0000000001    0.0000000000

Difference to rotation invariance:
           :   -0.0001044521   -0.0000172312    0.0000640815

Norm of the Cartesian gradient     ...    0.0005209687
RMS gradient                       ...    0.0000729502
MAX gradient                       ...    0.0001903902

-------
TIMINGS
-------

Total SCF gradient time     ....        7.013 sec

Densities                   ....       0.001 sec  (  0.0%)
One electron gradient       ....       0.068 sec  (  1.0%)
RI-J Coulomb gradient       ....       0.411 sec  (  5.9%)
COSX gradient               ....       5.414 sec  ( 77.2%)
XC gradient                 ....       1.073 sec  ( 15.3%)

Maximum memory used throughout the entire SCFGRAD-calculation: 30.1 MB


           ************************************************************
           *        Program running with 6 parallel MPI-processes     *
           *              working on a common directory               *
           ************************************************************

------------------------------------------------------------------------------
                              ORCA PROPERTY CALCULATIONS
------------------------------------------------------------------------------

GBWName                                 ... orca.gbw
Number of atoms                         ...     17
Number of basis functions               ...    178
Max core memory                         ...   4096 MB

Electric properties:
Dipole moment                           ... YES
Quadrupole moment                       ...  NO
Static polarizability (Dipole/Dipole)   ...  NO
Static polarizability (Dipole/Quad.)    ...  NO
Static polarizability (Quad./Quad.)     ...  NO
Static polarizability (Velocity)        ...  NO
Static hyperpolarizability              ...  NO

Atomic electric properties:
Dipole moment                           ...  NO
Quadrupole moment                       ...  NO
Static polarizability                   ...  NO

Choice of electric origin               ... Center of mass
Position of electric origin             ...    -2.643390    -2.646006     4.679366

General magnetic properties:
Magnetizability                         ...  NO

EPR properties:
g-Tensor (aka g-matrix)                 ...  NO
Zero-Field splitting spin-orbit         ...  NO
Zero-field splitting spin-spin          ...  NO
Hyperfine couplings                     ...  NO (   0 nuclei)
Quadrupole couplings                    ...  NO (   0 nuclei)
Contact density                         ...  NO (   0 nuclei)

NMR properties:
Chemical shifts                         ...  NO (   0 nuclei)
Spin-rotation constants                 ...  NO (   0 nuclei)
Spin-spin couplings                     ...  NO (   0 nuclei,    0 pairs)

Choice of magnetic origin               ... GIAO
Position of magnetic origin             ...     0.000000     0.000000     0.000000

Properties with geometric perturbations:
SCF Hessian                             ...  NO
IR spectrum                             ...  NO
VCD spectrum                            ...  NO
X-ray spectroscopy properties:
SCF XES/XAS/RIXS spectra                ...  NO

SCF SOC stabilization energy            ...  NO
Diagonal Born-Oppenheimer correction    ...  NO

-------------
DIPOLE MOMENT
-------------

Method             : SCF
Type of density    : Electron Density
Multiplicity       :   1
Irrep              :   0
Energy             : -1625.2434114528784903 Eh
Basis              : AO
                                X                 Y                 Z
Electronic contribution:    -19.458569782     -16.798036309       5.769057425
Nuclear contribution   :     20.510051450      17.057835179      -5.565230440
                        -----------------------------------------
Total Dipole Moment    :      1.051481668       0.259798871       0.203826986
                        -----------------------------------------
Magnitude (a.u.)       :      1.102113692
Magnitude (Debye)      :      2.801350379



--------------------
Rotational spectrum 
--------------------
 
Rotational constants in cm-1:             0.051089             0.015936             0.014871 
Rotational constants in MHz :          1531.598373           477.751987           445.835728 

Dipole components along the rotational axes: 
x,y,z [a.u.] :    -0.933088     0.375225     0.450786 
x,y,z [Debye]:    -2.371721     0.953745     1.145807 

 

Dipole moment calculation done in   0.0 sec 

Maximum memory used throughout the entire PROP-calculation: 8.4 MB

--------------------------------
SUGGESTED CITATIONS FOR THIS RUN
--------------------------------

Below you find a list of papers that are relevant to this ORCA run
We neither can nor want to force you to cite these papers, but we appreciate if you do
You receive ORCA, which is the product of decades of hard work by many enthusiastic individuals, for free
The only thing we kindly ask in return is that you cite our papers,
We deeply appreciate it, if you show your appreciation for ORCA by not just citing the generic ORCA reference.

Please note that relegating all ORCA citations to the supporting information does *not* help us.
SI sections are not indexed - citations you put there will not count into any citation statistics
But we need these citations in order to attract the funding resources that allow us to do what we are doing

Therefore, if you are a happy ORCA user, please consider citing a few of the papers listed below in the main body of your paper

In addition to the list printed below, the program has created the file orca.bibtex that contains the list in bibtex format
You can import this file easily into all common literature databanks and citation aid programs


List of essential papers. We consider these as the minimum necessary citations

  1. Neese, F.
     Software update: the ORCA program system, version 6.0
     WIRES Comput. Molec. Sci. 2025 15(1), e70019
     doi.org/10.1002/wcms.7019

List of papers to cite with high priority. The work reported in these papers was absolutely
necessary for this run to complete.
Our perspective: the developers of density functionals and basis sets usually get cited in chemistry papers
Good! But without the algorithms to do something with them, the functionals or basis sets would not do anything.
Hence, in our opinion, the algorithm design and method developments papers are equally worthy of getting cited

  1. Neese, F.
     An improvement of the resolution of the identity approximation for the formation of the Coulomb matrix
     J. Comp. Chem. 2003 24(14), 1740-1747
     doi.org/10.1002/jcc.10318
  2. Neese, F.; Wennmohs, F.; Hansen, A.; Becker, U.
     Efficient, approximate and parallel Hartree-Fock and hybrid DFT calculations. A 'chain-of-spheres' algorithm for the Hartree-Fock exchange
     Chem. Phys. 2009 356(1-3), 98-109
     doi.org/10.1016/j.chemphys.2008.10.036
  3. Grimme, S.; Antony, J.; Ehrlich, S.; Krieg, H.
     A consistent and accurate ab initio parametrization of density functional dispersion correction (DFT-D) for the 94 elements H-Pu
     J. Chem. Phys. 2010 132 , 154104
     doi.org/10.1063/1.3382344
  4. Grimme, S.; Ehrlich, S.; Goerigk, L.
     Effect of the damping function in dispersion corrected density functional theory
     J. Comput. Chem. 2011 32(7), 1456-1465
     doi.org/10.1002/jcc.21759
  5. Helmich-Paris, B.; de Souza, B.; Neese, F.; Izsák, R.
     An improved chain of spheres for exchange algorithm
     J. Chem. Phys. 2021 155(10), 104109
     doi.org/10.1063/5.0058766
  6. Neese, F.
     The SHARK Integral Generation and Digestion System
     J. Comp. Chem. 2022 44(3), 381
     doi.org/10.1002/jcc.26942

List of suggested additional citations. These are papers that are important in the 'surrounding' of 
of this run, or papers that preceded the highly important papers. If you like your results we are grateful for a citation.

  1. Izsak, R.; Neese, F.
     An overlap fitted chain of spheres exchange method
     J. Chem. Phys. 2011 135 , 144105
     doi.org/10.1063/1.3646921
  2. Izsak, R.; Hansen, A.; Neese, F.
     The resolution of identity and chain of spheres approximations for the LPNO-CCSD singles Fock term
     Molec. Phys. 2012 110 , 2413-2417
     doi.org/10.1080/00268976.2012.687466
  3. Neese, F.
     The ORCA program system
     WIRES Comput. Molec. Sci. 2012 2(1), 73-78
     doi.org/10.1002/wcms.81
  4. Izsak, R.; Neese, F.; Klopper, W.
     Robust fitting techniques in the chain of spheres approximation to the Fock exchange: The role of the complementary space
     J. Chem. Phys. 2013 139 , 
     doi.org/10.1063/1.4819264
  5. Neese, F.
     Software update: the ORCA program system, version 4.0
     WIRES Comput. Molec. Sci. 2018 8(1), 1-6
     doi.org/10.1002/wcms.1327
  6. Neese, F.; Wennmohs, F.; Becker, U.; Riplinger, C.
     The ORCA quantum chemistry program package
     J. Chem. Phys. 2020 152(22), 224108
     doi.org/10.1063/5.0004608
  7. Neese, F.
     Software update: The ORCA program system—Version 5.0
     WIRES Comput. Molec. Sci. 2022 12(1), e1606
     doi.org/10.1002/wcms.1606

List of optional additional citations

  1. Neese, F.
     Approximate second-order SCF convergence for spin unrestricted wavefunctions
     Chem. Phys. Lett. 2000 325(1-3), 93-98
     doi.org/10.1016/s0009-2614(00)00662-x

Timings for individual modules:

Sum of individual times          ...       26.119 sec (=   0.435 min)
Startup calculation              ...        1.740 sec (=   0.029 min)   6.7 %
SCF iterations                   ...       16.377 sec (=   0.273 min)  62.7 %
Property calculations            ...        0.500 sec (=   0.008 min)   1.9 %
SCF Gradient evaluation          ...        7.502 sec (=   0.125 min)  28.7 %
                             ****ORCA TERMINATED NORMALLY****
TOTAL RUN TIME: 0 days 0 hours 0 minutes 26 seconds 756 msec
