
                                 *****************
                                 * O   R   C   A *
                                 *****************

                                            #,                                       
                                            ###                                      
                                            ####                                     
                                            #####                                    
                                            ######                                   
                                           ########,                                 
                                     ,,################,,,,,                         
                               ,,#################################,,                 
                          ,,##########################################,,             
                       ,#########################################, ''#####,          
                    ,#############################################,,   '####,        
                  ,##################################################,,,,####,       
                ,###########''''           ''''###############################       
              ,#####''   ,,,,##########,,,,          '''####'''          '####       
            ,##' ,,,,###########################,,,                        '##       
           ' ,,###''''                  '''############,,,                           
         ,,##''                                '''############,,,,        ,,,,,,###''
      ,#''                                            '''#######################'''  
     '                                                          ''''####''''         
             ,#######,   #######,   ,#######,      ##                                
            ,#'     '#,  ##    ##  ,#'     '#,    #''#        ,####,    ,#,          
            ##       ##  ##   ,#'  ##            #'  '#       #'       ,# #          
            ##       ##  #######   ##           ,######,      #####,      #          
            '#,     ,#'  ##    ##  '#,     ,#' ,#      #,     #,   #      #          
             '#######'   ##     ##  '#######'  #'      '#     '####' #    #          



                #########################################################
                #                        -***-                          #
                #          Department of theory and spectroscopy        #
                #                                                       #
                #                      Frank Neese                      #
                #                                                       #
                #     Directorship, Architecture, Infrastructure        #
                #                    SHARK, DRIVERS                     #
                #        Core code/Algorithms in most modules           #
                #                                                       #
                #        Max Planck Institute fuer Kohlenforschung      #
                #                Kaiser Wilhelm Platz 1                 #
                #                 D-45470 Muelheim/Ruhr                 #
                #                      Germany                          #
                #                                                       #
                #                  All rights reserved                  #
                #                        -***-                          #
                #########################################################


                         Program Version 6.1.0  -  RELEASE   -
                                (GIT: $679e74b$)
                          ($2025-06-10 18:02:51 +0200$)


 With contributions from (in alphabetic order):
[Max-Planck-Institut fuer Kohlenforschung]                               
  Daniel Aravena         : Magnetic Suceptibility                        
  Michael Atanasov       : Ab Initio Ligand Field Theory (pilot matlab implementation)
  Alexander A. Auer      : GIAO ZORA, VPT2 properties, NMR spectrum      
  Ute Becker             : All parallelization in ORCA, NUMFREQ, NUMCALC 
  Giovanni Bistoni       : ED, misc. LED, open-shell LED, HFLD           
  Dmytro Bykov           : pre 5.0 version of the SCF Hessian            
  Marcos Casanova-Páez   : Triplet and SCS-CIS(D). UHF-(DLPNO)-IP/EA/STEOM-CCSD. UHF-CVS-IP/STEOM-CCSD   
  Vijay G. Chilkuri      : MRCI spin determinant printing, contributions to CSF-ICE 
  Pauline Colinet        : FMM embedding                                 
  Dipayan Datta          : RHF DLPNO-CCSD density                        
  Achintya Kumar Dutta   : EOM-CC, STEOM-CC                              
  Nicolas Foglia         : Exact transition moments, OPA infrastructure, MCD improvements    
  Dmitry Ganyushin       : Spin-Orbit,Spin-Spin,Magnetic field MRCI      
  Miquel Garcia-Rates    : C-PCM and meta-GGA Hessian, CCSD/C-PCM, Gaussian charge scheme 
  Tiago L. C. Gouveia    : GS-ROHF, GS-ROCIS                             
  Yang Guo               : DLPNO-NEVPT2, F12-NEVPT2, CIM, IAO-localization        
  Andreas Hansen         : Spin unrestricted coupled pair/coupled cluster methods 
  Ingolf Harden          : AUTO-CI MPn and infrastructure                
  Benjamin Helmich-Paris : MC-RPA, TRAH-(SCF,CASSCF), AVAS, COSX integrals, SCF dyn. polar., MC-PDFT, srDFT 
  Lee Huntington         : MR-EOM, pCC                                   
  Robert Izsak           : Overlap fitted RIJCOSX, COSX-SCS-MP3, EOM     
  Riya Kayal             : Wick's Theorem for AUTO-CI, AUTO-CI UHF-CCSDT 
  Emily Kempfer          : AUTO-CI RHF CISDT and CCSDT, approximate NEVPT4
  Christian Kollmar      : KDIIS, OOCD, Brueckner-CCSD(T), CCSD density, CASPT2, CASPT2-K, improved NEVPT2 
  Axel Koslowski         : Symmetry handling                             
  Simone Kossmann        : meta-GGA functionals, TD-DFT gradient, OOMP2, (MP2 Hessian; deprecated post 5.0) 
  Lucas Lang             : DCDCAS, Hyperfine gauge corrections, ICE-SOC+SSC
  Marvin Lechner         : AUTO-CI (C++ implementation), FIC-MRCC        
  Spencer Leger          : CASSCF response                               
  Dagmar Lenk            : GEPOL surface, SMD, ORCA-2-JSON               
  Dimitrios Liakos       : Extrapolation schemes; Compound Job, Property file
  Dimitrios Manganas     : Further ROCIS development; embedding schemes. LFT, Crystal Embedding 
  Dimitrios Pantazis     : SARC Basis sets                               
  Anastasios Papadopoulos: AUTO-CI, single reference methods and gradients 
  Taras Petrenko         : pre 6.0 DFT Hessian and TD-DFT gradient,  ECA, NRVS 
  Petra Pikulova         : Analytic Raman intensities                    
  Peter Pinski           : DLPNO-MP2, DLPNO-MP2 Gradient                 
  Shashank Vittal Rao    : ES-AILFT, MagRelax                            
  Christoph Reimann      : Effective Core Potentials                     
  Marius Retegan         : Local ZFS, SOC                                
  Christoph Riplinger    : Optimizer, TS searches, QM/MM, DLPNO-CCSD(T), (RO)-DLPNO pert. Triples 
  Michael Roemelt        : Original ROCIS implementation, recursive CI coupling coefficients
  Masaaki Saitow         : Open-shell DLPNO-CCSD energy and density      
  Barbara Sandhoefer     : DKH picture change effects                    
  Yorick L. A. Schmerwitz: GMF and freeze-and-release deltaSCF, NEB S-IDPP initial path                    
  Kantharuban Sivalingam : CASSCF convergence/infrastructure, NEVPT2, NEVPT3, NEVPT4(SD), FIC-MRCI and CEPA variants
  Bernardo de Souza      : ESD, SOC TD-DFT                               
  Georgi L. Stoychev     : AutoAux, RI-MP2 NMR, DLPNO-MP2 response, X2C  
  Van Anh Tran           : RI-MP2 g-tensors                              
  Willem Van den Heuvel  : Paramagnetic NMR                              
  Zikuan Wang            : NOTCH, Electric field optimization            
  Frank Wennmohs         : Technical directorship and infrastructure     
  Hang Xu                : AUTO-CI-Response properties                   
                                                                         
[FACCTs GmbH]                                                            
  Markus Bursch, Nicolas Foglia, Miquel Garcia-Rates, Ingolf Harden, Hagen Neugebauer, Anastasios Papadopoulos, 
  Christoph Riplinger, Bernardo de Souza, Georgi L. Stoychev                                                    
                                                                 
  APM, various basis sets, CI-OPT, improved COSX, DLPNO-Multilevel,           
  DOCKER, DRACO, updates on ESD, Fragmentator, GOAT, IRC, LR-CPCM, L-BFGS, MBIS, meta-GGA TD-DFT gradient, ML-optimized integration grids, 
  MM, NACMEs, nearIR, NEB, NEB-TS, NL-DFT gradient (VV10), 2- and 3-layer-ONIOM, interface openCOSMO-RS, QMMM,   
  Crystal-QMMM, RESP, rigid body optimization, SF, symmetry and pop. for TD-DFT, various functionals, SOLVATOR                                   
                                                                         
[Other institutions]                                                     
  V. Asgeirsson          : NEB                                           
  Christoph Bannwarth    : sTDA-DFT, sTD-DFT, PBEh-3c, B97-3c, D3        
  Giovanni Bistoni       : ETS/NOCV, ADLD/ADEX, COVALED                  
  Martin Brehm           : Molecular dynamics                            
  Ronald Cardenas        : ETS/NOCV                                      
  Martina Colucci        : COVALED                                       
  Sebastian Ehlert       : rSCAN, r2SCAN, r2SCAN-3c, D4, dhf basis sets  
  Marvin Friede          : D4 for Fr, Ra, Ac-Lr                          
  Lars Goerigk           : TD-DFT with DH, B97 family of functionals     
  Stefan Grimme          : VdW corrections, initial TS optimization, DFT functionals, gCP, sTDA/sTD-DF 
  Waldemar Hujo          : DFT-NL                                        
  H. Jonsson             : NEB                                           
  Holger Kruse           : gCP                                           
  Marcel Mueller         : wB97X-3c, vDZP basis set                      
  Hagen Neugebauer       : wr2SCAN, Native XTB                           
  Gianluca Regni         : ADLD/ADEX                                     
  Tobias Risthaus        : pre 6.0 range-separated hybrid DFT and stability analysis
  Lukas Wittmann         : regularized MP2, r2SCAN double-hybrids, wr2SCAN        
                                                                         
We gratefully acknowledge several colleagues who have allowed us to      
interface, adapt or use parts of their codes:                            
  Ed Valeev, F. Pavosevic, A. Kumar             : LibInt (2-el integral package), F12 methods 
  Garnet Chan, S. Sharma, J. Yang, R. Olivares  : DMRG                   
  Ulf Ekstrom                                   : XCFun DFT Library      
  Mihaly Kallay                                 : mrcc  (arbitrary order and MRCC methods)
  Frank Weinhold                                : gennbo (NPA and NBO analysis)           
  Simon Mueller                                 : openCOSMO-RS                            
  Christopher J. Cramer and Donald G. Truhlar   : smd solvation model                     
  S Lehtola, MJT Oliveira, MAL Marques          : LibXC Library                           
  Liviu Ungur et al                             : ANISO software                          


 Your calculation uses the libint2 library for the computation of 2-el integrals
 For citations please refer to: http://libint.valeyev.net

 Your ORCA version has been built with support for libXC version: 7.0.0
 For citations please refer to: https://libxc.gitlab.io

 This ORCA versions uses:
   CBLAS   interface :  Fast vector & matrix operations
   LAPACKE interface :  Fast linear algebra routines
   SCALAPACK package :  Parallel linear algebra routines
   Shared memory     :  Shared parallel matrices
   BLAS/LAPACK       :  OpenBLAS 0.3.29  USE64BITINT DYNAMIC_ARCH NO_AFFINITY Zen SINGLE_THREADED
        Core in use  :  Zen
   Copyright (c) 2011-2014, The OpenBLAS Project


  ***********************************
  * Starting time: Wed Sep 10 13:34:18 2025
  * Host name:     wyk-Server
  * Process ID:    2281918
  * Working dir.:  /home/wyk/Documents/code/openQDC/MGMR/singlepointcalc/35/sp
  ***********************************

Your calculation utilizes the atom-pairwise dispersion correction
with the Becke-Johnson damping scheme (D3BJ)


Warning: RI is on but no J-basis has been assigned. Assigning Def2/J (nothing to worry about!)
================================================================================

----- Orbital basis set information -----
Your calculation utilizes the basis: def2-SVP
   F. Weigend and R. Ahlrichs, Phys. Chem. Chem. Phys. 7, 3297 (2005).

----- AuxJ basis set information -----
Your calculation utilizes the auxiliary basis: def2/J
   H-Rn: F. Weigend, Phys. Chem. Chem. Phys. 8, 1057 (2006).
   Fr-Lr: K. Eichkorn, F. Weigend, O. Treutler, R. Ahlrichs; Theor. Chem. Acc. 97, 119 (1997).

================================================================================
                                        WARNINGS
                       Please study these warnings very carefully!
================================================================================


================================================================================
                                       INPUT FILE
================================================================================
NAME = orca.inp
|  1> ! B3LYP def2-SVP d3 EnGrad 
|  2> %pal nprocs 6 end 
|  3> *xyz 0 1 
|  4> C   0.95891002827747 -0.52163343780472 0.16639216038866
|  5> O   0.85847074635864 0.45406584679513 -0.69431233667655
|  6> N   -1.03284726203045 0.74852851634841 -0.06801001213685
|  7> H   -1.80451187032594 1.45365850502211 -0.04895219184147
|  8> H   1.615172985366 -0.35806763172321 1.04844632669517
|  9> H   0.95374949557369 -1.56030481294788 -0.22985028767595
| 10> H   -0.21047723918911 -0.32400920871295 0.64354517076454
| 11> H   -1.33846688403031 0.10776222302312 -0.81725882951756
| 12> *
| 13> 
| 14>                          ****END OF INPUT****
================================================================================

                     *******************************
                     * Energy+Gradient Calculation *
                     *******************************

---------------------------------
CARTESIAN COORDINATES (ANGSTROEM)
---------------------------------
  C      0.958910   -0.521633    0.166392
  O      0.858471    0.454066   -0.694312
  N     -1.032847    0.748529   -0.068010
  H     -1.804512    1.453659   -0.048952
  H      1.615173   -0.358068    1.048446
  H      0.953749   -1.560305   -0.229850
  H     -0.210477   -0.324009    0.643545
  H     -1.338467    0.107762   -0.817259

----------------------------
CARTESIAN COORDINATES (A.U.)
----------------------------
  NO LB      ZA    FRAG     MASS         X           Y           Z
   0 C     6.0000    0    12.011    1.812077   -0.985744    0.314436
   1 O     8.0000    0    15.999    1.622275    0.858060   -1.312060
   2 N     7.0000    0    14.007   -1.951798    1.414514   -0.128520
   3 H     1.0000    0     1.008   -3.410033    2.747016   -0.092506
   4 H     1.0000    0     1.008    3.052235   -0.676650    1.981276
   5 H     1.0000    0     1.008    1.802325   -2.948549   -0.434354
   6 H     1.0000    0     1.008   -0.397744   -0.612289    1.216124
   7 H     1.0000    0     1.008   -2.529336    0.203641   -1.544395

--------------------------------
INTERNAL COORDINATES (ANGSTROEM)
--------------------------------
 C      0   0   0     0.000000000000     0.00000000     0.00000000
 O      1   0   0     1.304948035207     0.00000000     0.00000000
 N      2   1   0     2.013962927747    88.65275269     0.00000000
 H      3   2   1     1.045484466234   142.88499044   160.26513914
 H      1   2   3     1.111509961298   117.31144450   250.46955120
 H      1   2   3     1.111698220871   117.58919254   106.65704430
 H      1   2   3     1.278357114639    93.45089668   356.75849263
 H      3   2   1     1.032162093065    87.79680018   267.90598958

---------------------------
INTERNAL COORDINATES (A.U.)
---------------------------
 C      0   0   0     0.000000000000     0.00000000     0.00000000
 O      1   0   0     2.465994405539     0.00000000     0.00000000
 N      2   1   0     3.805838377313    88.65275269     0.00000000
 H      3   2   1     1.975679318452   142.88499044   160.26513914
 H      1   2   3     2.100449421978   117.31144450   250.46955120
 H      1   2   3     2.100805181014   117.58919254   106.65704430
 H      1   2   3     2.415744848017    93.45089668   356.75849263
 H      3   2   1     1.950503681707    87.79680018   267.90598958

---------------------
BASIS SET INFORMATION
---------------------
There are 4 groups of distinct atoms

 Group   1 Type C   : 7s4p1d contracted to 3s2p1d pattern {511/31/1}
 Group   2 Type O   : 7s4p1d contracted to 3s2p1d pattern {511/31/1}
 Group   3 Type N   : 7s4p1d contracted to 3s2p1d pattern {511/31/1}
 Group   4 Type H   : 4s1p contracted to 2s1p pattern {31/1}

Atom   0C    basis set group =>   1
Atom   1O    basis set group =>   2
Atom   2N    basis set group =>   3
Atom   3H    basis set group =>   4
Atom   4H    basis set group =>   4
Atom   5H    basis set group =>   4
Atom   6H    basis set group =>   4
Atom   7H    basis set group =>   4
---------------------------------
AUXILIARY/J BASIS SET INFORMATION
---------------------------------
There are 4 groups of distinct atoms

 Group   1 Type C   : 12s5p4d2f1g contracted to 6s4p3d1f1g pattern {711111/2111/211/2/1}
 Group   2 Type O   : 12s5p4d2f1g contracted to 6s4p3d1f1g pattern {711111/2111/211/2/1}
 Group   3 Type N   : 12s5p4d2f1g contracted to 6s4p3d1f1g pattern {711111/2111/211/2/1}
 Group   4 Type H   : 5s2p1d contracted to 3s1p1d pattern {311/2/1}

Atom   0C    basis set group =>   1
Atom   1O    basis set group =>   2
Atom   2N    basis set group =>   3
Atom   3H    basis set group =>   4
Atom   4H    basis set group =>   4
Atom   5H    basis set group =>   4
Atom   6H    basis set group =>   4
Atom   7H    basis set group =>   4


           ************************************************************
           *        Program running with 6 parallel MPI-processes     *
           *              working on a common directory               *
           ************************************************************
------------------------------------------------------------------------------
                             ORCA STARTUP CALCULATIONS
                           -- RI-GTO INTEGRALS CHOSEN --
------------------------------------------------------------------------------
------------------------------------------------------------------------------
                   ___                                                        
                  /   \      - P O W E R E D   B Y -                         
                 /     \                                                     
                 |  |  |   _    _      __       _____    __    __             
                 |  |  |  | |  | |    /  \     |  _  \  |  |  /  |          
                  \  \/   | |  | |   /    \    | | | |  |  | /  /          
                 / \  \   | |__| |  /  /\  \   | |_| |  |  |/  /          
                |  |  |   |  __  | /  /__\  \  |    /   |      \           
                |  |  |   | |  | | |   __   |  |    \   |  |\   \          
                \     /   | |  | | |  |  |  |  | |\  \  |  | \   \       
                 \___/    |_|  |_| |__|  |__|  |_| \__\ |__|  \__/        
                                                                              
                      - O R C A' S   B I G   F R I E N D -                    
                                      &                                       
                       - I N T E G R A L  F E E D E R -                       
                                                                              
 v1 FN, 2020, v2 2021, v3 2022-2024                                           
------------------------------------------------------------------------------


----------------------
SHARK INTEGRAL PACKAGE
----------------------

Number of atoms                             ...      8
Number of basis functions                   ...     67
Number of shells                            ...     33
Maximum angular momentum                    ...      2
Integral batch strategy                     ... SHARK/LIBINT Hybrid
RI-J (if used) integral strategy            ... SPLIT-RIJ (Revised 2003 algorithm where possible)
Printlevel                                  ...      1
Contraction scheme used                     ... SEGMENTED contraction
Prescreening option                         ... SCHWARTZ
   Thresh                                   ... 2.500e-11
   Tcut                                     ... 2.500e-12
   Tpresel                                  ... 2.500e-12 
Coulomb Range Separation                    ... NOT USED
Exchange Range Separation                   ... NOT USED
Multipole approximations                    ... NOT USED
Finite Nucleus Model                        ... NOT USED
CABS basis                                  ... NOT available
Auxiliary Coulomb fitting basis             ... AVAILABLE
   # of basis functions in Aux-J            ...    202
   # of shells in Aux-J                     ...     70
   Maximum angular momentum in Aux-J        ...      4
Auxiliary J/K fitting basis                 ... NOT available
Auxiliary Correlation fitting basis         ... NOT available
Auxiliary 'external' fitting basis          ... NOT available

Checking pre-screening integrals            ... done (  0.0 sec) Dimension = 33
   => SHARK Basis and OBASIS are compatible. Storing Pre-screening
Shell pair information
Shell pair cut-off parameter TPreSel        ...   2.5e-12
Total number of shell pairs                 ...       561
Shell pairs after pre-screening             ...       559
Total number of primitive shell pairs       ...      1945
Primitive shell pairs kept                  ...      1648
          la=0 lb=0:    188 shell pairs
          la=1 lb=0:    209 shell pairs
          la=1 lb=1:     66 shell pairs
          la=2 lb=0:     57 shell pairs
          la=2 lb=1:     33 shell pairs
          la=2 lb=2:      6 shell pairs

Checking whether 4 symmetric matrices of dimension 67 fit in memory
:Max Core in MB      =   4096.00
 MB in use           =      3.94
 MB left             =   4092.06
 MB needed           =      0.07
 Data fit in memory  = YES
Calculating RI/J V-Matrix + Cholesky decomp.... done (  0.0 sec)
Calculating Nuclear repulsion               ... done (  0.0 sec) ENN=     77.829408330362 Eh

Diagonalization of the overlap matrix:
Smallest eigenvalue                        ... 1.141e-02
Time for diagonalization                   ...    0.001 sec
Threshold for overlap eigenvalues          ... 1.000e-07
Number of eigenvalues below threshold      ... 0
Time for construction of square roots      ...    0.000 sec
Total time needed                          ...    0.002 sec

-------------------
DFT GRID GENERATION
-------------------

General Integration Accuracy     IntAcc      ... 4.388
Radial Grid Type                 RadialGrid  ... OptM3 with GC (2021)
Angular Grid (max. ang.)         AngularGrid ... 4 (Lebedev-302)
Angular grid pruning method      GridPruning ... 4 (adaptive)
Weight generation scheme         WeightScheme... mBecke (2022)
Basis function cutoff            BFCut       ... 1.0000e-11
Integration weight cutoff        WCut        ... 1.0000e-14
Partially contracted basis set               ... off
Rotationally invariant grid construction     ... off
Angular grids for H and He will be reduced by one unit

Total number of grid points                  ...    34654
Total number of batches                      ...      545
Average number of points per batch           ...       63
Average number of grid points per atom       ...     4332

--------------------
COSX GRID GENERATION
--------------------

GRIDX 1
-------
General Integration Accuracy     IntAcc      ... 3.816
Radial Grid Type                 RadialGrid  ... OptM3 with GC (2021)
Angular Grid (max. ang.)         AngularGrid ... 1 (Lebedev-50)
Angular grid pruning method      GridPruning ... 4 (adaptive)
Weight generation scheme         WeightScheme... mBecke (2022)
Basis function cutoff            BFCut       ... 1.0000e-11
Integration weight cutoff        WCut        ... 1.0000e-14
Partially contracted basis set               ... on
Rotationally invariant grid construction     ... off
Angular grids for H and He will be reduced by one unit

Total number of grid points                  ...     4463
Total number of batches                      ...       40
Average number of points per batch           ...      111
Average number of grid points per atom       ...      558
UseSFitting                                  ... on

GRIDX 2
-------
General Integration Accuracy     IntAcc      ... 4.020
Radial Grid Type                 RadialGrid  ... OptM3 with GC (2021)
Angular Grid (max. ang.)         AngularGrid ... 2 (Lebedev-110)
Angular grid pruning method      GridPruning ... 4 (adaptive)
Weight generation scheme         WeightScheme... mBecke (2022)
Basis function cutoff            BFCut       ... 1.0000e-11
Integration weight cutoff        WCut        ... 1.0000e-14
Partially contracted basis set               ... on
Rotationally invariant grid construction     ... off
Angular grids for H and He will be reduced by one unit

Total number of grid points                  ...     9518
Total number of batches                      ...       78
Average number of points per batch           ...      122
Average number of grid points per atom       ...     1190
UseSFitting                                  ... on

GRIDX 3
-------
General Integration Accuracy     IntAcc      ... 4.338
Radial Grid Type                 RadialGrid  ... OptM3 with GC (2021)
Angular Grid (max. ang.)         AngularGrid ... 3 (Lebedev-194)
Angular grid pruning method      GridPruning ... 4 (adaptive)
Weight generation scheme         WeightScheme... mBecke (2022)
Basis function cutoff            BFCut       ... 1.0000e-11
Integration weight cutoff        WCut        ... 1.0000e-14
Partially contracted basis set               ... on
Rotationally invariant grid construction     ... off
Angular grids for H and He will be reduced by one unit

Total number of grid points                  ...    20947
Total number of batches                      ...      169
Average number of points per batch           ...      123
Average number of grid points per atom       ...     2618
UseSFitting                                  ... on
Grids setup in   0.4 sec
Initializing property integral containers    ... done (  0.0 sec)

SHARK setup successfully completed in   0.4 seconds

Maximum memory used throughout the entire STARTUP-calculation: 11.5 MB


           ************************************************************
           *        Program running with 6 parallel MPI-processes     *
           *              working on a common directory               *
           ************************************************************
-------------------------------------------------------------------------------
                                 ORCA GUESS
                   Start orbitals & Density for SCF / CASSCF
-------------------------------------------------------------------------------

------------
SCF SETTINGS
------------
Hamiltonian:
 Density Functional     Method          .... DFT(GTOs)
 Exchange Functional    Exchange        .... B88
   X-Alpha parameter    XAlpha          ....  0.666667
   Becke's b parameter  XBeta           ....  0.004200
 Correlation Functional Correlation     .... LYP
 LDA part of GGA corr.  LDAOpt          .... VWN-5
 Gradients option       PostSCFGGA      .... off
 Hybrid DFT is turned on
   Fraction HF Exchange ScalHFX         ....  0.200000
   Scaling of DF-GGA-X  ScalDFX         ....  0.720000
   Scaling of DF-GGA-C  ScalDFC         ....  0.810000
   Scaling of DF-LDA-C  ScalLDAC        ....  1.000000
   Perturbative correction              ....  0.000000
   NL short-range parameter             ....  4.800000
 RI-approximation to the Coulomb term is turned on
   Number of AuxJ basis functions       .... 202
   RIJ-COSX (HFX calculated with COS-X)).... on


General Settings:
 Integral files         IntName         .... orca
 Hartree-Fock type      HFTyp           .... RHF
 Total Charge           Charge          ....    0
 Multiplicity           Mult            ....    1
 Number of Electrons    NEL             ....   26
 Basis Dimension        Dim             ....   67
 Nuclear Repulsion      ENuc            ....     77.8294083304 Eh

Convergence Acceleration:
 AO-DIIS                CNVDIIS         .... on
   Start iteration      DIISMaxIt       ....    12
   Startup error        DIISStart       ....  0.200000
   # of expansion vecs  DIISMaxEq       ....     5
   Bias factor          DIISBfac        ....   1.050
   Max. coefficient     DIISMaxC        ....  10.000
 MO-DIIS                CNVKDIIS        .... off
 Trust-Rad. Augm. Hess. CNVTRAH         .... auto
   Auto Start mean grad. ratio tolernc. ....  1.125000
   Auto Start start iteration           ....    50
   Auto Start num. interpolation iter.  ....    10
   Max. Number of Micro iterations      ....    24
   Max. Number of Macro iterations      .... Maxiter - #DIIS iter
   Number of Davidson start vectors     ....     2
   Converg. threshold    (grad. norm)   ....   1.000e-05
   Grad. Scal. Fac. for Micro threshold ....   0.100
   Minimum threshold for Micro iter.    ....   1.000e-02
   NR start threshold (gradient norm)   ....   1.000e-04
   Initial trust radius                 ....   0.400
   Minimum AH scaling param. (alpha)    ....   1.000
   Maximum AH scaling param. (alpha)    .... 1000.000
   Quad. conv. algorithm                .... NR
   White noise on init. David. guess    .... on
   Maximum white noise                  ....   0.010
   Pseudo random numbers                .... off
   Inactive MOs                         .... canonical
   Orbital update algorithm             .... Taylor
   Preconditioner                       .... Diag
   Full preconditioner red. dimension   ....   250
 SOSCF                 CNVSOSCF           .... on
   Start iteration     SOSCFMaxIt         ....   150
   Startup grad/error  SOSCFStart         ....  0.003300
   Hessian update      SOSCFHessUp        .... L-BFGS
   Autom. constraints  SOSCFAutoConstrain .... off
 Level Shifting         CNVShift        .... on
   Level shift para.    LevelShift      ....    0.2500
   Turn off err/grad.   ShiftErr        ....    0.0010
 Zerner damping         CNVZerner       .... off
 Static damping         CNVDamp         .... on
   Fraction old density DampFac         ....    0.7000
   Max. Damping (<1)    DampMax         ....    0.9800
   Min. Damping (>=0)   DampMin         ....    0.0000
   Turn off err/grad.   DampErr         ....    0.1000

SCF Procedure:
 Maximum # iterations   MaxIter         ....   125
 SCF integral mode      SCFMode         .... Direct
   Integral package                     .... SHARK and LIBINT hybrid scheme
 Reset frequency        DirectResetFreq ....    20
 Integral Threshold     Thresh          ....  2.500e-11 Eh
 Primitive CutOff       TCut            ....  2.500e-12 Eh

Convergence Tolerance:
 Convergence Check Mode ConvCheckMode   .... Total+1el-Energy
 Convergence forced     ConvForced      .... 0
 Energy Change          TolE            ....  1.000e-08 Eh
 1-El. energy change                    ....  1.000e-05 Eh
 Orbital Gradient       TolG            ....  1.000e-05
 Orbital Rotation angle TolX            ....  1.000e-05
 DIIS Error             TolErr          ....  5.000e-07

------------------------------
INITIAL GUESS: MODEL POTENTIAL
------------------------------
Loading Hartree-Fock densities                     ... done
Calculating cut-offs                               ... done
Initializing the effective Hamiltonian             ... done
Setting up the integral package (SHARK)            ... done
Starting the Coulomb interaction                   ... done (   0.0 sec)
Making the grid                                    ... done (   0.1 sec)
Mapping shells                                     ... done
Starting the XC term evaluation                    ... done (   0.0 sec)
  promolecular density results
     # of electrons  =     25.997063702
     EX              =    -21.295900572
     EC              =     -0.860460248
     EX+EC           =    -22.156360820
Transforming the Hamiltonian                       ... done (   0.0 sec)
Diagonalizing the Hamiltonian                      ... done (   0.0 sec)
Back transforming the eigenvectors                 ... done (   0.0 sec)
Now organizing SCF variables                       ... done
                      ------------------
                      INITIAL GUESS DONE (   0.1 sec)
                      ------------------
             **** ENERGY FILE WAS UPDATED (orca.en.tmp) ****
Finished Guess after   0.2 sec
Maximum memory used throughout the entire GUESS-calculation: 6.2 MB


           ************************************************************
           *        Program running with 6 parallel MPI-processes     *
           *              working on a common directory               *
           ************************************************************

-------------------------------------------------------------------------------------------
                                      ORCA LEAN-SCF
                              memory conserving SCF solver
-------------------------------------------------------------------------------------------

----------------------------------------D-I-I-S--------------------------------------------
Iteration    Energy (Eh)           Delta-E    RMSDP     MaxDP     DIISErr   Damp  Time(sec)
-------------------------------------------------------------------------------------------
               ***  Starting incremental Fock matrix formation  ***
    1    -170.5862897820533135     0.00e+00  1.32e-02  8.55e-02  1.66e-01  0.700   0.2
    2    -170.6304219852692654    -4.41e-02  9.24e-03  6.08e-02  7.96e-02  0.700   0.1
                               ***Turning on AO-DIIS***
    3    -170.6468453682517463    -1.64e-02  3.67e-03  2.16e-02  2.55e-02  0.700   0.1
    4    -170.6565894004416748    -9.74e-03  5.61e-03  2.73e-02  1.22e-02  0.000   0.2
    5    -170.6783240526652037    -2.17e-02  1.35e-03  5.89e-03  5.39e-03  0.000   0.1
    6    -170.6785038450620391    -1.80e-04  5.97e-04  4.30e-03  3.66e-03  0.000   0.1
                              *** Initializing SOSCF ***
---------------------------------------S-O-S-C-F--------------------------------------
Iteration    Energy (Eh)           Delta-E    RMSDP     MaxDP     MaxGrad    Time(sec)
--------------------------------------------------------------------------------------
    7    -170.6785323903888241    -2.85e-05  2.41e-04  9.67e-04  1.09e-03     0.2
               *** Restarting incremental Fock matrix formation ***
    8    -170.6785042693441881     2.81e-05  2.60e-04  9.66e-04  3.32e-04     0.2
    9    -170.6785044006379621    -1.31e-07  1.38e-04  8.33e-04  3.74e-04     0.2
   10    -170.6785066072263533    -2.21e-06  7.09e-05  3.34e-04  1.11e-04     0.2
   11    -170.6785062185424238     3.89e-07  4.61e-05  2.54e-04  3.38e-04     0.2
   12    -170.6785066864664770    -4.68e-07  2.68e-05  1.88e-04  2.10e-05     0.2
   13    -170.6785066805481677     5.92e-09  1.36e-05  1.01e-04  2.48e-05     0.2
                 **** Energy Check signals convergence ****

               *****************************************************
               *                     SUCCESS                       *
               *           SCF CONVERGED AFTER  13 CYCLES          *
               *****************************************************

Recomputing exchange energy using gridx3       ... done (    0.233 sec)
Old exchange energy                            :     -4.301298262 Eh
New exchange energy                            :     -4.301331443 Eh
Exchange energy change after final integration :     -0.000033181 Eh
Total energy after final integration           :   -170.678539879 Eh
             **** ENERGY FILE WAS UPDATED (orca.en.tmp) ****

----------------
TOTAL SCF ENERGY
----------------

Total Energy       :       -170.67853987929377 Eh           -4644.39919 eV

Components:
Nuclear Repulsion  :         77.82940833036210 Eh            2117.84587 eV
Electronic Energy  :       -248.50791502896163 Eh           -6762.24415 eV
One Electron Energy:       -386.33732172711427 Eh          -10512.77298 eV
Two Electron Energy:        137.82940669815264 Eh            3750.52883 eV

Virial components:
Potential Energy   :       -339.99506398639301 Eh           -9251.73604 eV
Kinetic Energy     :        169.31652410709927 Eh            4607.33685 eV
Virial Ratio       :          2.00804419875365

DFT components:
N(Alpha)           :       12.999995458687 electrons
N(Beta)            :       12.999995458687 electrons
N(Total)           :       25.999990917374 electrons
E(X)               :      -17.180556560781 Eh       
E(C)               :       -1.021485266551 Eh       
E(XC)              :      -18.202041827332 Eh       

---------------
SCF CONVERGENCE
---------------

  Last Energy change         ...   -5.9183e-09  Tolerance :   1.0000e-08
  Last MAX-Density change    ...    1.0144e-04  Tolerance :   1.0000e-07
  Last RMS-Density change    ...    1.3626e-05  Tolerance :   5.0000e-09
  Last DIIS Error            ...    1.0948e-03  Tolerance :   5.0000e-07
  Last Orbital Gradient      ...    2.4810e-05  Tolerance :   1.0000e-05
  Last Orbital Rotation      ...    2.2533e-05  Tolerance :   1.0000e-05


----------------
ORBITAL ENERGIES
----------------

  NO   OCC          E(Eh)            E(eV) 
   0   2.0000     -19.154977      -521.2334 
   1   2.0000     -14.356051      -390.6480 
   2   2.0000     -10.222300      -278.1629 
   3   2.0000      -1.001087       -27.2410 
   4   2.0000      -0.826196       -22.4819 
   5   2.0000      -0.619488       -16.8571 
   6   2.0000      -0.503027       -13.6881 
   7   2.0000      -0.458007       -12.4630 
   8   2.0000      -0.429371       -11.6838 
   9   2.0000      -0.417668       -11.3653 
  10   2.0000      -0.304187        -8.2773 
  11   2.0000      -0.264711        -7.2031 
  12   2.0000      -0.253781        -6.9057 
  13   0.0000      -0.113240        -3.0814 
  14   0.0000       0.052645         1.4325 
  15   0.0000       0.093393         2.5413 
  16   0.0000       0.118996         3.2380 
  17   0.0000       0.149988         4.0814 
  18   0.0000       0.161226         4.3872 
  19   0.0000       0.207165         5.6372 
  20   0.0000       0.407545        11.0899 
  21   0.0000       0.462618        12.5885 
  22   0.0000       0.533882        14.5277 
  23   0.0000       0.554987        15.1020 
*Only the first 10 virtual orbitals were printed.

                    ********************************
                    * MULLIKEN POPULATION ANALYSIS *
                    ********************************

-----------------------
MULLIKEN ATOMIC CHARGES
-----------------------
   0 C :    0.087302
   1 O :   -0.238903
   2 N :   -0.168723
   3 H :    0.085666
   4 H :    0.020663
   5 H :    0.015807
   6 H :    0.090475
   7 H :    0.107713
Sum of atomic charges:   -0.0000000

--------------------------------
MULLIKEN REDUCED ORBITAL CHARGES
--------------------------------
  0 C s       :     3.056078  s :     3.056078
      pz      :     0.913815  p :     2.794439
      px      :     1.019795
      py      :     0.860829
      dz2     :     0.015576  d :     0.062181
      dxz     :     0.008447
      dyz     :     0.017203
      dx2y2   :     0.015179
      dxy     :     0.005777

  1 O s       :     3.864841  s :     3.864841
      pz      :     1.596082  p :     4.358876
      px      :     1.209194
      py      :     1.553601
      dz2     :     0.002759  d :     0.015186
      dxz     :     0.001990
      dyz     :     0.005042
      dx2y2   :     0.002854
      dxy     :     0.002542

  2 N s       :     3.652037  s :     3.652037
      pz      :     1.178251  p :     3.502413
      px      :     1.240606
      py      :     1.083556
      dz2     :     0.002404  d :     0.014273
      dxz     :     0.002153
      dyz     :     0.002859
      dx2y2   :     0.001148
      dxy     :     0.005709

  3 H s       :     0.872761  s :     0.872761
      pz      :     0.009216  p :     0.041572
      px      :     0.016693
      py      :     0.015664

  4 H s       :     0.957718  s :     0.957718
      pz      :     0.009987  p :     0.021620
      px      :     0.008559
      py      :     0.003074

  5 H s       :     0.962746  s :     0.962746
      pz      :     0.004384  p :     0.021447
      px      :     0.004868
      py      :     0.012195

  6 H s       :     0.873991  s :     0.873991
      pz      :     0.006544  p :     0.035534
      px      :     0.017430
      py      :     0.011560

  7 H s       :     0.846923  s :     0.846923
      pz      :     0.017556  p :     0.045364
      px      :     0.012091
      py      :     0.015716



                     *******************************
                     * LOEWDIN POPULATION ANALYSIS *
                     *******************************

----------------------
LOEWDIN ATOMIC CHARGES
----------------------
   0 C :   -0.021679
   1 O :   -0.099617
   2 N :   -0.069367
   3 H :    0.043707
   4 H :    0.006346
   5 H :   -0.001444
   6 H :    0.087085
   7 H :    0.054969

-------------------------------
LOEWDIN REDUCED ORBITAL CHARGES
-------------------------------
  0 C s       :     2.884381  s :     2.884381
      pz      :     0.990815  p :     2.989528
      px      :     1.032765
      py      :     0.965949
      dz2     :     0.034812  d :     0.147770
      dxz     :     0.022724
      dyz     :     0.040925
      dx2y2   :     0.039798
      dxy     :     0.009511

  1 O s       :     3.626106  s :     3.626106
      pz      :     1.639744  p :     4.447894
      px      :     1.199250
      py      :     1.608899
      dz2     :     0.004292  d :     0.025617
      dxz     :     0.002514
      dyz     :     0.009555
      dx2y2   :     0.004980
      dxy     :     0.004276

  2 N s       :     3.390822  s :     3.390822
      pz      :     1.227078  p :     3.647755
      px      :     1.274498
      py      :     1.146179
      dz2     :     0.005086  d :     0.030790
      dxz     :     0.003367
      dyz     :     0.006942
      dx2y2   :     0.001850
      dxy     :     0.013544

  3 H s       :     0.841535  s :     0.841535
      pz      :     0.021143  p :     0.114759
      px      :     0.054492
      py      :     0.039124

  4 H s       :     0.926901  s :     0.926901
      pz      :     0.031735  p :     0.066753
      px      :     0.026035
      py      :     0.008983

  5 H s       :     0.934669  s :     0.934669
      pz      :     0.013778  p :     0.066775
      px      :     0.014408
      py      :     0.038589

  6 H s       :     0.792740  s :     0.792740
      pz      :     0.013459  p :     0.120174
      px      :     0.070369
      py      :     0.036346

  7 H s       :     0.822247  s :     0.822247
      pz      :     0.051410  p :     0.122784
      px      :     0.032672
      py      :     0.038701



                      *****************************
                      * MAYER POPULATION ANALYSIS *
                      *****************************

  NA   - Mulliken gross atomic population
  ZA   - Total nuclear charge
  QA   - Mulliken gross atomic charge
  VA   - Mayer's total valence
  BVA  - Mayer's bonded valence
  FA   - Mayer's free valence

  ATOM       NA         ZA         QA         VA         BVA        FA
  0 C      5.9127     6.0000     0.0873     3.8854     3.8854    -0.0000
  1 O      8.2389     8.0000    -0.2389     2.1065     2.1065    -0.0000
  2 N      7.1687     7.0000    -0.1687     3.0535     3.0535    -0.0000
  3 H      0.9143     1.0000     0.0857     0.9913     0.9913     0.0000
  4 H      0.9793     1.0000     0.0207     0.9731     0.9731    -0.0000
  5 H      0.9842     1.0000     0.0158     0.9658     0.9658     0.0000
  6 H      0.9095     1.0000     0.0905     1.0363     1.0363     0.0000
  7 H      0.8923     1.0000     0.1077     1.0002     1.0002     0.0000

  Mayer bond orders larger than 0.100000
B(  0-C ,  1-O ) :   1.4022 B(  0-C ,  4-H ) :   0.9303 B(  0-C ,  5-H ) :   0.9314 
B(  0-C ,  6-H ) :   0.5657 B(  1-O ,  2-N ) :   0.6233 B(  2-N ,  3-H ) :   0.9416 
B(  2-N ,  6-H ) :   0.4592 B(  2-N ,  7-H ) :   0.9745 

-------
TIMINGS
-------

Total SCF time: 0 days 0 hours 0 min 2 sec 

Total time                  ....       2.886 sec
Sum of individual times     ....       2.656 sec  ( 92.0%)

SCF preparation             ....       0.174 sec  (  6.0%)
Fock matrix formation       ....       2.332 sec  ( 80.8%)
  Startup                   ....       0.004 sec  (  0.2% of F)
  Split-RI-J                ....       0.151 sec  (  6.5% of F)
  Chain of spheres X        ....       1.649 sec  ( 70.7% of F)
  XC integration            ....       0.620 sec  ( 26.6% of F)
    XC Preparation          ....       0.000 sec  (  0.0% of XC)
    Basis function eval.    ....       0.178 sec  ( 28.8% of XC)
    Density eval.           ....       0.082 sec  ( 13.2% of XC)
    XC-Functional eval.     ....       0.054 sec  (  8.7% of XC)
    XC-Potential eval.      ....       0.091 sec  ( 14.7% of XC)
Diagonalization             ....       0.000 sec  (  0.0%)
Density matrix formation    ....       0.022 sec  (  0.8%)
Total Energy calculation    ....       0.013 sec  (  0.5%)
Population analysis         ....       0.009 sec  (  0.3%)
Orbital Transformation      ....       0.009 sec  (  0.3%)
Orbital Orthonormalization  ....       0.000 sec  (  0.0%)
DIIS solution               ....       0.055 sec  (  1.9%)
SOSCF solution              ....       0.041 sec  (  1.4%)
Finished LeanSCF after   2.9 sec

Maximum memory used throughout the entire LEANSCF-calculation: 6.5 MB


-------------------------------------------------------------------------------
                          DFT DISPERSION CORRECTION                            
                                                                               
                              DFTD3 V3.1  Rev 1                                
                          USING Becke-Johnson damping                          
-------------------------------------------------------------------------------
The B3LYP functional is recognized
Active option DFTDOPT                   ...         4   

molecular C6(AA) [au] = 436.150089 


            DFT-D V3
 parameters
 s6 scaling factor         :     1.0000 
 a1 scaling factor         :     0.3981 
 s8 scaling factor         :     1.9889 
 a2 scaling factor         :     4.4211 
 ad hoc parameters k1-k3   :    16.0000     1.3333    -4.0000 

 Edisp/kcal,au: -3.745338235310  -0.005968575760 
 E6   /kcal   :  -1.915208097 
 E8   /kcal   :  -1.830130138 
 % E8         :  48.864215274 

-------------------------   ----------------
Dispersion correction           -0.005968576
-------------------------   ----------------


-------------------------   --------------------
FINAL SINGLE POINT ENERGY      -170.684508455053
-------------------------   --------------------



           ************************************************************
           *        Program running with 6 parallel MPI-processes     *
           *              working on a common directory               *
           ************************************************************
------------------------------------------------------------------------------
                         ORCA SCF GRADIENT CALCULATION
------------------------------------------------------------------------------

Nuc. rep. gradient        (SHARK) ... done (  0.0 sec)
HCore & Overlap gradient  (SHARK) ... done (  0.0 sec)
Split-RIJ-J gradient      (SHARK) ... done (  0.1 sec)
done (  1.0 sec)
XC gradient                       ... done (  0.2 sec)
Dispersion correction             ... done (  0.0 sec)

-------------------
DISPERSION GRADIENT
-------------------

   1   C   :   -0.000044173   -0.000039312    0.000094868
   2   O   :   -0.000088919    0.000038118    0.000018403
   3   N   :    0.000188714   -0.000141931    0.000037657
   4   H   :   -0.000143753    0.000088006    0.000000380
   5   H   :    0.000117906   -0.000046582    0.000059063
   6   H   :    0.000102027   -0.000111359    0.000004397
   7   H   :   -0.000001898    0.000163094   -0.000177782
   8   H   :   -0.000129905    0.000049965   -0.000036986

Difference to translation invariance:
           :   -0.0000000000    0.0000000000   -0.0000000000

Difference to rotation invariance:
           :    0.0000000000    0.0000000000    0.0000000000

Norm of the Dispersion gradient    ...    0.0004786643
RMS gradient                       ...    0.0000977070
MAX gradient                       ...    0.0001887142

------------------
CARTESIAN GRADIENT
------------------

   1   C   :    0.000138422   -0.000076745    0.000076876
   2   O   :   -0.000072253    0.000106878   -0.000137747
   3   N   :    0.000148962   -0.000038179    0.000056175
   4   H   :   -0.000082592    0.000057105    0.000018741
   5   H   :   -0.000103156   -0.000052125   -0.000013409
   6   H   :   -0.000006452    0.000029440    0.000000191
   7   H   :   -0.000024197    0.000030476    0.000045034
   8   H   :    0.000001265   -0.000056850   -0.000045862

Difference to translation invariance:
           :    0.0000000000    0.0000000000   -0.0000000000

Difference to rotation invariance:
           :    0.0000645024    0.0000940655    0.0000504598

Norm of the Cartesian gradient     ...    0.0003565671
RMS gradient                       ...    0.0000727839
MAX gradient                       ...    0.0001489621

-------
TIMINGS
-------

Total SCF gradient time     ....        1.409 sec

Densities                   ....       0.000 sec  (  0.0%)
One electron gradient       ....       0.016 sec  (  1.1%)
RI-J Coulomb gradient       ....       0.114 sec  (  8.1%)
COSX gradient               ....       1.025 sec  ( 72.8%)
XC gradient                 ....       0.207 sec  ( 14.7%)

Maximum memory used throughout the entire SCFGRAD-calculation: 26.1 MB


           ************************************************************
           *        Program running with 6 parallel MPI-processes     *
           *              working on a common directory               *
           ************************************************************

------------------------------------------------------------------------------
                              ORCA PROPERTY CALCULATIONS
------------------------------------------------------------------------------

GBWName                                 ... orca.gbw
Number of atoms                         ...      8
Number of basis functions               ...     67
Max core memory                         ...   4096 MB

Electric properties:
Dipole moment                           ... YES
Quadrupole moment                       ...  NO
Static polarizability (Dipole/Dipole)   ...  NO
Static polarizability (Dipole/Quad.)    ...  NO
Static polarizability (Quad./Quad.)     ...  NO
Static polarizability (Velocity)        ...  NO
Static hyperpolarizability              ...  NO

Atomic electric properties:
Dipole moment                           ...  NO
Quadrupole moment                       ...  NO
Static polarizability                   ...  NO

Choice of electric origin               ... Center of mass
Position of electric origin             ...     0.401351     0.433608    -0.379965

General magnetic properties:
Magnetizability                         ...  NO

EPR properties:
g-Tensor (aka g-matrix)                 ...  NO
Zero-Field splitting spin-orbit         ...  NO
Zero-field splitting spin-spin          ...  NO
Hyperfine couplings                     ...  NO (   0 nuclei)
Quadrupole couplings                    ...  NO (   0 nuclei)
Contact density                         ...  NO (   0 nuclei)

NMR properties:
Chemical shifts                         ...  NO (   0 nuclei)
Spin-rotation constants                 ...  NO (   0 nuclei)
Spin-spin couplings                     ...  NO (   0 nuclei,    0 pairs)

Choice of magnetic origin               ... GIAO
Position of magnetic origin             ...     0.000000     0.000000     0.000000

Properties with geometric perturbations:
SCF Hessian                             ...  NO
IR spectrum                             ...  NO
VCD spectrum                            ...  NO
X-ray spectroscopy properties:
SCF XES/XAS/RIXS spectra                ...  NO

SCF SOC stabilization energy            ...  NO
Diagonal Born-Oppenheimer correction    ...  NO

-------------
DIPOLE MOMENT
-------------

Method             : SCF
Type of density    : Electron Density
Multiplicity       :   1
Irrep              :   0
Energy             :  -170.6785398792937656 Eh
Basis              : AO
                                X                 Y                 Z
Electronic contribution:      0.978275406       1.351430247      -1.332566058
Nuclear contribution   :     -1.729609692      -1.709030301       1.495714754
                        -----------------------------------------
Total Dipole Moment    :     -0.751334286      -0.357600054       0.163148697
                        -----------------------------------------
Magnitude (a.u.)       :      0.847937796
Magnitude (Debye)      :      2.155286593



--------------------
Rotational spectrum 
--------------------
 
Rotational constants in cm-1:             1.016801             0.301838             0.252741 
Rotational constants in MHz :         30482.932058          9048.883777          7576.975596 

Dipole components along the rotational axes: 
x,y,z [a.u.] :    -0.516204    -0.573445    -0.351699 
x,y,z [Debye]:    -1.312086    -1.457582    -0.893949 

 

Dipole moment calculation done in   0.0 sec 

Maximum memory used throughout the entire PROP-calculation: 4.1 MB

--------------------------------
SUGGESTED CITATIONS FOR THIS RUN
--------------------------------

Below you find a list of papers that are relevant to this ORCA run
We neither can nor want to force you to cite these papers, but we appreciate if you do
You receive ORCA, which is the product of decades of hard work by many enthusiastic individuals, for free
The only thing we kindly ask in return is that you cite our papers,
We deeply appreciate it, if you show your appreciation for ORCA by not just citing the generic ORCA reference.

Please note that relegating all ORCA citations to the supporting information does *not* help us.
SI sections are not indexed - citations you put there will not count into any citation statistics
But we need these citations in order to attract the funding resources that allow us to do what we are doing

Therefore, if you are a happy ORCA user, please consider citing a few of the papers listed below in the main body of your paper

In addition to the list printed below, the program has created the file orca.bibtex that contains the list in bibtex format
You can import this file easily into all common literature databanks and citation aid programs


List of essential papers. We consider these as the minimum necessary citations

  1. Neese, F.
     Software update: the ORCA program system, version 6.0
     WIRES Comput. Molec. Sci. 2025 15(1), e70019
     doi.org/10.1002/wcms.7019

List of papers to cite with high priority. The work reported in these papers was absolutely
necessary for this run to complete.
Our perspective: the developers of density functionals and basis sets usually get cited in chemistry papers
Good! But without the algorithms to do something with them, the functionals or basis sets would not do anything.
Hence, in our opinion, the algorithm design and method developments papers are equally worthy of getting cited

  1. Neese, F.
     An improvement of the resolution of the identity approximation for the formation of the Coulomb matrix
     J. Comp. Chem. 2003 24(14), 1740-1747
     doi.org/10.1002/jcc.10318
  2. Neese, F.; Wennmohs, F.; Hansen, A.; Becker, U.
     Efficient, approximate and parallel Hartree-Fock and hybrid DFT calculations. A 'chain-of-spheres' algorithm for the Hartree-Fock exchange
     Chem. Phys. 2009 356(1-3), 98-109
     doi.org/10.1016/j.chemphys.2008.10.036
  3. Grimme, S.; Antony, J.; Ehrlich, S.; Krieg, H.
     A consistent and accurate ab initio parametrization of density functional dispersion correction (DFT-D) for the 94 elements H-Pu
     J. Chem. Phys. 2010 132 , 154104
     doi.org/10.1063/1.3382344
  4. Grimme, S.; Ehrlich, S.; Goerigk, L.
     Effect of the damping function in dispersion corrected density functional theory
     J. Comput. Chem. 2011 32(7), 1456-1465
     doi.org/10.1002/jcc.21759
  5. Helmich-Paris, B.; de Souza, B.; Neese, F.; Izsák, R.
     An improved chain of spheres for exchange algorithm
     J. Chem. Phys. 2021 155(10), 104109
     doi.org/10.1063/5.0058766
  6. Neese, F.
     The SHARK Integral Generation and Digestion System
     J. Comp. Chem. 2022 44(3), 381
     doi.org/10.1002/jcc.26942

List of suggested additional citations. These are papers that are important in the 'surrounding' of 
of this run, or papers that preceded the highly important papers. If you like your results we are grateful for a citation.

  1. Izsak, R.; Neese, F.
     An overlap fitted chain of spheres exchange method
     J. Chem. Phys. 2011 135 , 144105
     doi.org/10.1063/1.3646921
  2. Izsak, R.; Hansen, A.; Neese, F.
     The resolution of identity and chain of spheres approximations for the LPNO-CCSD singles Fock term
     Molec. Phys. 2012 110 , 2413-2417
     doi.org/10.1080/00268976.2012.687466
  3. Neese, F.
     The ORCA program system
     WIRES Comput. Molec. Sci. 2012 2(1), 73-78
     doi.org/10.1002/wcms.81
  4. Izsak, R.; Neese, F.; Klopper, W.
     Robust fitting techniques in the chain of spheres approximation to the Fock exchange: The role of the complementary space
     J. Chem. Phys. 2013 139 , 
     doi.org/10.1063/1.4819264
  5. Neese, F.
     Software update: the ORCA program system, version 4.0
     WIRES Comput. Molec. Sci. 2018 8(1), 1-6
     doi.org/10.1002/wcms.1327
  6. Neese, F.; Wennmohs, F.; Becker, U.; Riplinger, C.
     The ORCA quantum chemistry program package
     J. Chem. Phys. 2020 152(22), 224108
     doi.org/10.1063/5.0004608
  7. Neese, F.
     Software update: The ORCA program system—Version 5.0
     WIRES Comput. Molec. Sci. 2022 12(1), e1606
     doi.org/10.1002/wcms.1606

List of optional additional citations

  1. Neese, F.
     Approximate second-order SCF convergence for spin unrestricted wavefunctions
     Chem. Phys. Lett. 2000 325(1-3), 93-98
     doi.org/10.1016/s0009-2614(00)00662-x

Timings for individual modules:

Sum of individual times          ...        6.848 sec (=   0.114 min)
Startup calculation              ...        0.830 sec (=   0.014 min)  12.1 %
SCF iterations                   ...        3.754 sec (=   0.063 min)  54.8 %
Property calculations            ...        0.419 sec (=   0.007 min)   6.1 %
SCF Gradient evaluation          ...        1.845 sec (=   0.031 min)  26.9 %
                             ****ORCA TERMINATED NORMALLY****
TOTAL RUN TIME: 0 days 0 hours 0 minutes 7 seconds 395 msec
