
                                 *****************
                                 * O   R   C   A *
                                 *****************

                                            #,                                       
                                            ###                                      
                                            ####                                     
                                            #####                                    
                                            ######                                   
                                           ########,                                 
                                     ,,################,,,,,                         
                               ,,#################################,,                 
                          ,,##########################################,,             
                       ,#########################################, ''#####,          
                    ,#############################################,,   '####,        
                  ,##################################################,,,,####,       
                ,###########''''           ''''###############################       
              ,#####''   ,,,,##########,,,,          '''####'''          '####       
            ,##' ,,,,###########################,,,                        '##       
           ' ,,###''''                  '''############,,,                           
         ,,##''                                '''############,,,,        ,,,,,,###''
      ,#''                                            '''#######################'''  
     '                                                          ''''####''''         
             ,#######,   #######,   ,#######,      ##                                
            ,#'     '#,  ##    ##  ,#'     '#,    #''#        ,####,    ,#,          
            ##       ##  ##   ,#'  ##            #'  '#       #'       ,# #          
            ##       ##  #######   ##           ,######,      #####,      #          
            '#,     ,#'  ##    ##  '#,     ,#' ,#      #,     #,   #      #          
             '#######'   ##     ##  '#######'  #'      '#     '####' #    #          



                #########################################################
                #                        -***-                          #
                #          Department of theory and spectroscopy        #
                #                                                       #
                #                      Frank Neese                      #
                #                                                       #
                #     Directorship, Architecture, Infrastructure        #
                #                    SHARK, DRIVERS                     #
                #        Core code/Algorithms in most modules           #
                #                                                       #
                #        Max Planck Institute fuer Kohlenforschung      #
                #                Kaiser Wilhelm Platz 1                 #
                #                 D-45470 Muelheim/Ruhr                 #
                #                      Germany                          #
                #                                                       #
                #                  All rights reserved                  #
                #                        -***-                          #
                #########################################################


                         Program Version 6.1.0  -  RELEASE   -
                                (GIT: $679e74b$)
                          ($2025-06-10 18:02:51 +0200$)


 With contributions from (in alphabetic order):
[Max-Planck-Institut fuer Kohlenforschung]                               
  Daniel Aravena         : Magnetic Suceptibility                        
  Michael Atanasov       : Ab Initio Ligand Field Theory (pilot matlab implementation)
  Alexander A. Auer      : GIAO ZORA, VPT2 properties, NMR spectrum      
  Ute Becker             : All parallelization in ORCA, NUMFREQ, NUMCALC 
  Giovanni Bistoni       : ED, misc. LED, open-shell LED, HFLD           
  Dmytro Bykov           : pre 5.0 version of the SCF Hessian            
  Marcos Casanova-Páez   : Triplet and SCS-CIS(D). UHF-(DLPNO)-IP/EA/STEOM-CCSD. UHF-CVS-IP/STEOM-CCSD   
  Vijay G. Chilkuri      : MRCI spin determinant printing, contributions to CSF-ICE 
  Pauline Colinet        : FMM embedding                                 
  Dipayan Datta          : RHF DLPNO-CCSD density                        
  Achintya Kumar Dutta   : EOM-CC, STEOM-CC                              
  Nicolas Foglia         : Exact transition moments, OPA infrastructure, MCD improvements    
  Dmitry Ganyushin       : Spin-Orbit,Spin-Spin,Magnetic field MRCI      
  Miquel Garcia-Rates    : C-PCM and meta-GGA Hessian, CCSD/C-PCM, Gaussian charge scheme 
  Tiago L. C. Gouveia    : GS-ROHF, GS-ROCIS                             
  Yang Guo               : DLPNO-NEVPT2, F12-NEVPT2, CIM, IAO-localization        
  Andreas Hansen         : Spin unrestricted coupled pair/coupled cluster methods 
  Ingolf Harden          : AUTO-CI MPn and infrastructure                
  Benjamin Helmich-Paris : MC-RPA, TRAH-(SCF,CASSCF), AVAS, COSX integrals, SCF dyn. polar., MC-PDFT, srDFT 
  Lee Huntington         : MR-EOM, pCC                                   
  Robert Izsak           : Overlap fitted RIJCOSX, COSX-SCS-MP3, EOM     
  Riya Kayal             : Wick's Theorem for AUTO-CI, AUTO-CI UHF-CCSDT 
  Emily Kempfer          : AUTO-CI RHF CISDT and CCSDT, approximate NEVPT4
  Christian Kollmar      : KDIIS, OOCD, Brueckner-CCSD(T), CCSD density, CASPT2, CASPT2-K, improved NEVPT2 
  Axel Koslowski         : Symmetry handling                             
  Simone Kossmann        : meta-GGA functionals, TD-DFT gradient, OOMP2, (MP2 Hessian; deprecated post 5.0) 
  Lucas Lang             : DCDCAS, Hyperfine gauge corrections, ICE-SOC+SSC
  Marvin Lechner         : AUTO-CI (C++ implementation), FIC-MRCC        
  Spencer Leger          : CASSCF response                               
  Dagmar Lenk            : GEPOL surface, SMD, ORCA-2-JSON               
  Dimitrios Liakos       : Extrapolation schemes; Compound Job, Property file
  Dimitrios Manganas     : Further ROCIS development; embedding schemes. LFT, Crystal Embedding 
  Dimitrios Pantazis     : SARC Basis sets                               
  Anastasios Papadopoulos: AUTO-CI, single reference methods and gradients 
  Taras Petrenko         : pre 6.0 DFT Hessian and TD-DFT gradient,  ECA, NRVS 
  Petra Pikulova         : Analytic Raman intensities                    
  Peter Pinski           : DLPNO-MP2, DLPNO-MP2 Gradient                 
  Shashank Vittal Rao    : ES-AILFT, MagRelax                            
  Christoph Reimann      : Effective Core Potentials                     
  Marius Retegan         : Local ZFS, SOC                                
  Christoph Riplinger    : Optimizer, TS searches, QM/MM, DLPNO-CCSD(T), (RO)-DLPNO pert. Triples 
  Michael Roemelt        : Original ROCIS implementation, recursive CI coupling coefficients
  Masaaki Saitow         : Open-shell DLPNO-CCSD energy and density      
  Barbara Sandhoefer     : DKH picture change effects                    
  Yorick L. A. Schmerwitz: GMF and freeze-and-release deltaSCF, NEB S-IDPP initial path                    
  Kantharuban Sivalingam : CASSCF convergence/infrastructure, NEVPT2, NEVPT3, NEVPT4(SD), FIC-MRCI and CEPA variants
  Bernardo de Souza      : ESD, SOC TD-DFT                               
  Georgi L. Stoychev     : AutoAux, RI-MP2 NMR, DLPNO-MP2 response, X2C  
  Van Anh Tran           : RI-MP2 g-tensors                              
  Willem Van den Heuvel  : Paramagnetic NMR                              
  Zikuan Wang            : NOTCH, Electric field optimization            
  Frank Wennmohs         : Technical directorship and infrastructure     
  Hang Xu                : AUTO-CI-Response properties                   
                                                                         
[FACCTs GmbH]                                                            
  Markus Bursch, Nicolas Foglia, Miquel Garcia-Rates, Ingolf Harden, Hagen Neugebauer, Anastasios Papadopoulos, 
  Christoph Riplinger, Bernardo de Souza, Georgi L. Stoychev                                                    
                                                                 
  APM, various basis sets, CI-OPT, improved COSX, DLPNO-Multilevel,           
  DOCKER, DRACO, updates on ESD, Fragmentator, GOAT, IRC, LR-CPCM, L-BFGS, MBIS, meta-GGA TD-DFT gradient, ML-optimized integration grids, 
  MM, NACMEs, nearIR, NEB, NEB-TS, NL-DFT gradient (VV10), 2- and 3-layer-ONIOM, interface openCOSMO-RS, QMMM,   
  Crystal-QMMM, RESP, rigid body optimization, SF, symmetry and pop. for TD-DFT, various functionals, SOLVATOR                                   
                                                                         
[Other institutions]                                                     
  V. Asgeirsson          : NEB                                           
  Christoph Bannwarth    : sTDA-DFT, sTD-DFT, PBEh-3c, B97-3c, D3        
  Giovanni Bistoni       : ETS/NOCV, ADLD/ADEX, COVALED                  
  Martin Brehm           : Molecular dynamics                            
  Ronald Cardenas        : ETS/NOCV                                      
  Martina Colucci        : COVALED                                       
  Sebastian Ehlert       : rSCAN, r2SCAN, r2SCAN-3c, D4, dhf basis sets  
  Marvin Friede          : D4 for Fr, Ra, Ac-Lr                          
  Lars Goerigk           : TD-DFT with DH, B97 family of functionals     
  Stefan Grimme          : VdW corrections, initial TS optimization, DFT functionals, gCP, sTDA/sTD-DF 
  Waldemar Hujo          : DFT-NL                                        
  H. Jonsson             : NEB                                           
  Holger Kruse           : gCP                                           
  Marcel Mueller         : wB97X-3c, vDZP basis set                      
  Hagen Neugebauer       : wr2SCAN, Native XTB                           
  Gianluca Regni         : ADLD/ADEX                                     
  Tobias Risthaus        : pre 6.0 range-separated hybrid DFT and stability analysis
  Lukas Wittmann         : regularized MP2, r2SCAN double-hybrids, wr2SCAN        
                                                                         
We gratefully acknowledge several colleagues who have allowed us to      
interface, adapt or use parts of their codes:                            
  Ed Valeev, F. Pavosevic, A. Kumar             : LibInt (2-el integral package), F12 methods 
  Garnet Chan, S. Sharma, J. Yang, R. Olivares  : DMRG                   
  Ulf Ekstrom                                   : XCFun DFT Library      
  Mihaly Kallay                                 : mrcc  (arbitrary order and MRCC methods)
  Frank Weinhold                                : gennbo (NPA and NBO analysis)           
  Simon Mueller                                 : openCOSMO-RS                            
  Christopher J. Cramer and Donald G. Truhlar   : smd solvation model                     
  S Lehtola, MJT Oliveira, MAL Marques          : LibXC Library                           
  Liviu Ungur et al                             : ANISO software                          


 Your calculation uses the libint2 library for the computation of 2-el integrals
 For citations please refer to: http://libint.valeyev.net

 Your ORCA version has been built with support for libXC version: 7.0.0
 For citations please refer to: https://libxc.gitlab.io

 This ORCA versions uses:
   CBLAS   interface :  Fast vector & matrix operations
   LAPACKE interface :  Fast linear algebra routines
   SCALAPACK package :  Parallel linear algebra routines
   Shared memory     :  Shared parallel matrices
   BLAS/LAPACK       :  OpenBLAS 0.3.29  USE64BITINT DYNAMIC_ARCH NO_AFFINITY Zen SINGLE_THREADED
        Core in use  :  Zen
   Copyright (c) 2011-2014, The OpenBLAS Project


  ***********************************
  * Starting time: Wed Sep 10 13:38:10 2025
  * Host name:     wyk-Server
  * Process ID:    2308064
  * Working dir.:  /home/wyk/Documents/code/openQDC/MGMR/singlepointcalc/93/prod
  ***********************************

Your calculation utilizes the atom-pairwise dispersion correction
with the Becke-Johnson damping scheme (D3BJ)


Warning: RI is on but no J-basis has been assigned. Assigning Def2/J (nothing to worry about!)
================================================================================

----- Orbital basis set information -----
Your calculation utilizes the basis: def2-SVP
   F. Weigend and R. Ahlrichs, Phys. Chem. Chem. Phys. 7, 3297 (2005).

----- AuxJ basis set information -----
Your calculation utilizes the auxiliary basis: def2/J
   H-Rn: F. Weigend, Phys. Chem. Chem. Phys. 8, 1057 (2006).
   Fr-Lr: K. Eichkorn, F. Weigend, O. Treutler, R. Ahlrichs; Theor. Chem. Acc. 97, 119 (1997).

================================================================================
                                        WARNINGS
                       Please study these warnings very carefully!
================================================================================


================================================================================
                                       INPUT FILE
================================================================================
NAME = orca.inp
|  1> ! B3LYP def2-SVP d3 EnGrad 
|  2> %pal nprocs 6 end 
|  3> *xyz 0 1 
|  4> C   1.47916322511671 -0.62435726162477 -1.05378428003161
|  5> C   1.43653850571449 -0.2333924776636 0.39159642352068
|  6> H   2.31939106323833 -0.11200420924389 -1.54230222398461
|  7> H   0.54301161747992 -0.28020895055843 -1.51972970825227
|  8> H   1.56298625182959 -1.71190032356171 -1.17553625145647
|  9> O   1.5936054592308 0.87108155082486 0.86057611455933
| 10> O   1.0474675250539 -0.90377302907664 2.54861681309479
| 11> H   1.25582949579328 0.06148711060367 2.46284588366737
| 12> O   1.17220480666809 -1.29873397222175 1.18108736729922
| 13> C   -1.78769581456109 0.85109215075599 -0.13605110397083
| 14> C   -1.74957597262072 -0.24302476718863 0.63995449516211
| 15> C   -2.20820097886378 -1.6298906883332 0.300022844255
| 16> H   -1.31058170600261 -0.13659221215517 1.63810567688337
| 17> H   -2.58673683808099 -1.72105613641643 -0.72849571112137
| 18> H   -3.01052355735645 -1.95717025189109 0.98456408659973
| 19> H   -1.37900465382754 -2.34673158414437 0.42937395632399
| 20> C   -2.32041257580254 0.96532531593416 -1.53509863822255
| 21> H   -1.37863781332952 1.77694836724751 0.28644762128128
| 22> H   -2.69069613526525 0.00955311895037 -1.93375172719239
| 23> H   -1.54426737552938 1.34343909596407 -2.22493090869889
| 24> H   -3.1503955288852 1.69264315379907 -1.58284772971587
| 25> *
| 26> 
| 27>                          ****END OF INPUT****
================================================================================

                     *******************************
                     * Energy+Gradient Calculation *
                     *******************************

---------------------------------
CARTESIAN COORDINATES (ANGSTROEM)
---------------------------------
  C      1.479163   -0.624357   -1.053784
  C      1.436539   -0.233392    0.391596
  H      2.319391   -0.112004   -1.542302
  H      0.543012   -0.280209   -1.519730
  H      1.562986   -1.711900   -1.175536
  O      1.593605    0.871082    0.860576
  O      1.047468   -0.903773    2.548617
  H      1.255829    0.061487    2.462846
  O      1.172205   -1.298734    1.181087
  C     -1.787696    0.851092   -0.136051
  C     -1.749576   -0.243025    0.639954
  C     -2.208201   -1.629891    0.300023
  H     -1.310582   -0.136592    1.638106
  H     -2.586737   -1.721056   -0.728496
  H     -3.010524   -1.957170    0.984564
  H     -1.379005   -2.346732    0.429374
  C     -2.320413    0.965325   -1.535099
  H     -1.378638    1.776948    0.286448
  H     -2.690696    0.009553   -1.933752
  H     -1.544267    1.343439   -2.224931
  H     -3.150396    1.692643   -1.582848

----------------------------
CARTESIAN COORDINATES (A.U.)
----------------------------
  NO LB      ZA    FRAG     MASS         X           Y           Z
   0 C     6.0000    0    12.011    2.795213   -1.179864   -1.991364
   1 C     6.0000    0    12.011    2.714664   -0.441048    0.740010
   2 H     1.0000    0     1.008    4.383014   -0.211657   -2.914529
   3 H     1.0000    0     1.008    1.026143   -0.529518   -2.871873
   4 H     1.0000    0     1.008    2.953616   -3.235023   -2.221442
   5 O     8.0000    0    15.999    3.011478    1.646106    1.626253
   6 O     8.0000    0    15.999    1.979427   -1.707884    4.816188
   7 H     1.0000    0     1.008    2.373174    0.116194    4.654104
   8 O     8.0000    0    15.999    2.215146   -2.454252    2.231932
   9 C     6.0000    0    12.011   -3.378256    1.608331   -0.257099
  10 C     6.0000    0    12.011   -3.306219   -0.459250    1.209339
  11 C     6.0000    0    12.011   -4.172895   -3.080047    0.566961
  12 H     1.0000    0     1.008   -2.476641   -0.258122    3.095571
  13 H     1.0000    0     1.008   -4.888224   -3.252325   -1.376657
  14 H     1.0000    0     1.008   -5.689065   -3.698516    1.860556
  15 H     1.0000    0     1.008   -2.605941   -4.434680    0.811399
  16 C     6.0000    0    12.011   -4.384944    1.824200   -2.900916
  17 H     1.0000    0     1.008   -2.605248    3.357946    0.541308
  18 H     1.0000    0     1.008   -5.084679    0.018053   -3.654261
  19 H     1.0000    0     1.008   -2.918242    2.538732   -4.204510
  20 H     1.0000    0     1.008   -5.953385    3.198632   -2.991149

--------------------------------
INTERNAL COORDINATES (ANGSTROEM)
--------------------------------
 C      0   0   0     0.000000000000     0.00000000     0.00000000
 C      1   0   0     1.497930474756     0.00000000     0.00000000
 H      1   2   0     1.098698435333   109.21315196     0.00000000
 H      1   2   3     1.100873759598   107.61449833   242.47510443
 H      1   2   3     1.097542597770   111.58236582   122.77875576
 O      2   1   3     1.210154890127   127.47812649    42.46839691
 O      2   1   3     2.292056559674   146.77888443   217.69988953
 H      7   2   1     0.991210623652    66.30056833   183.08768216
 O      2   1   3     1.352080158418   111.30517357   221.68703819
 C      4   1   2     2.937108407184   126.57102982   351.98652635
 C     10   4   1     1.341912680605    86.32133286   307.29066411
 C     11  10   4     1.499762483486   127.89430084   283.27906454
 H     11  10   4     1.095604689870   117.32396518   101.58892816
 H     12  11  10     1.099750405497   113.19669354     1.91204996
 H     12  11  10     1.104278110420   110.83881514   240.69508049
 H     12  11  10     1.103702462421   110.13850412   123.34006125
 C     10   4   1     1.501389478726    82.63881262   178.56189115
 H     10   4   1     1.096833330469   102.16076009    64.19125402
 H     17  10   4     1.099788476154   113.02377006    78.09973329
 H     17  10   4     1.105097264473   111.00881391   316.68956106
 H     17  10   4     1.104600794596   110.91500603   199.13175297

---------------------------
INTERNAL COORDINATES (A.U.)
---------------------------
 C      0   0   0     0.000000000000     0.00000000     0.00000000
 C      1   0   0     2.830678364944     0.00000000     0.00000000
 H      1   2   0     2.076239146547   109.21315196     0.00000000
 H      1   2   3     2.080349913660   107.61449833   242.47510443
 H      1   2   3     2.074054930098   111.58236582   122.77875576
 O      2   1   3     2.286861321966   127.47812649    42.46839691
 O      2   1   3     4.331359181241   146.77888443   217.69988953
 H      7   2   1     1.873116619736    66.30056833   183.08768216
 O      2   1   3     2.555061210519   111.30517357   221.68703819
 C      4   1   2     5.550330515216   126.57102982   351.98652635
 C     10   4   1     2.535847461979    86.32133286   307.29066411
 C     11  10   4     2.834140359718   127.89430084   283.27906454
 H     11  10   4     2.070392814895   117.32396518   101.58892816
 H     12  11  10     2.078227082058   113.19669354     1.91204996
 H     12  11  10     2.086783204378   110.83881514   240.69508049
 H     12  11  10     2.085695387310   110.13850412   123.34006125
 C     10   4   1     2.837214935143    82.63881262   178.56189115
 H     10   4   1     2.072714609143   102.16076009    64.19125402
 H     17  10   4     2.078299025173   113.02377006    78.09973329
 H     17  10   4     2.088331181200   111.00881391   316.68956106
 H     17  10   4     2.087392989099   110.91500603   199.13175297

---------------------
BASIS SET INFORMATION
---------------------
There are 3 groups of distinct atoms

 Group   1 Type C   : 7s4p1d contracted to 3s2p1d pattern {511/31/1}
 Group   2 Type H   : 4s1p contracted to 2s1p pattern {31/1}
 Group   3 Type O   : 7s4p1d contracted to 3s2p1d pattern {511/31/1}

Atom   0C    basis set group =>   1
Atom   1C    basis set group =>   1
Atom   2H    basis set group =>   2
Atom   3H    basis set group =>   2
Atom   4H    basis set group =>   2
Atom   5O    basis set group =>   3
Atom   6O    basis set group =>   3
Atom   7H    basis set group =>   2
Atom   8O    basis set group =>   3
Atom   9C    basis set group =>   1
Atom  10C    basis set group =>   1
Atom  11C    basis set group =>   1
Atom  12H    basis set group =>   2
Atom  13H    basis set group =>   2
Atom  14H    basis set group =>   2
Atom  15H    basis set group =>   2
Atom  16C    basis set group =>   1
Atom  17H    basis set group =>   2
Atom  18H    basis set group =>   2
Atom  19H    basis set group =>   2
Atom  20H    basis set group =>   2
---------------------------------
AUXILIARY/J BASIS SET INFORMATION
---------------------------------
There are 3 groups of distinct atoms

 Group   1 Type C   : 12s5p4d2f1g contracted to 6s4p3d1f1g pattern {711111/2111/211/2/1}
 Group   2 Type H   : 5s2p1d contracted to 3s1p1d pattern {311/2/1}
 Group   3 Type O   : 12s5p4d2f1g contracted to 6s4p3d1f1g pattern {711111/2111/211/2/1}

Atom   0C    basis set group =>   1
Atom   1C    basis set group =>   1
Atom   2H    basis set group =>   2
Atom   3H    basis set group =>   2
Atom   4H    basis set group =>   2
Atom   5O    basis set group =>   3
Atom   6O    basis set group =>   3
Atom   7H    basis set group =>   2
Atom   8O    basis set group =>   3
Atom   9C    basis set group =>   1
Atom  10C    basis set group =>   1
Atom  11C    basis set group =>   1
Atom  12H    basis set group =>   2
Atom  13H    basis set group =>   2
Atom  14H    basis set group =>   2
Atom  15H    basis set group =>   2
Atom  16C    basis set group =>   1
Atom  17H    basis set group =>   2
Atom  18H    basis set group =>   2
Atom  19H    basis set group =>   2
Atom  20H    basis set group =>   2


           ************************************************************
           *        Program running with 6 parallel MPI-processes     *
           *              working on a common directory               *
           ************************************************************
------------------------------------------------------------------------------
                             ORCA STARTUP CALCULATIONS
                           -- RI-GTO INTEGRALS CHOSEN --
------------------------------------------------------------------------------
------------------------------------------------------------------------------
                   ___                                                        
                  /   \      - P O W E R E D   B Y -                         
                 /     \                                                     
                 |  |  |   _    _      __       _____    __    __             
                 |  |  |  | |  | |    /  \     |  _  \  |  |  /  |          
                  \  \/   | |  | |   /    \    | | | |  |  | /  /          
                 / \  \   | |__| |  /  /\  \   | |_| |  |  |/  /          
                |  |  |   |  __  | /  /__\  \  |    /   |      \           
                |  |  |   | |  | | |   __   |  |    \   |  |\   \          
                \     /   | |  | | |  |  |  |  | |\  \  |  | \   \       
                 \___/    |_|  |_| |__|  |__|  |_| \__\ |__|  \__/        
                                                                              
                      - O R C A' S   B I G   F R I E N D -                    
                                      &                                       
                       - I N T E G R A L  F E E D E R -                       
                                                                              
 v1 FN, 2020, v2 2021, v3 2022-2024                                           
------------------------------------------------------------------------------


----------------------
SHARK INTEGRAL PACKAGE
----------------------

Number of atoms                             ...     21
Number of basis functions                   ...    186
Number of shells                            ...     90
Maximum angular momentum                    ...      2
Integral batch strategy                     ... SHARK/LIBINT Hybrid
RI-J (if used) integral strategy            ... SPLIT-RIJ (Revised 2003 algorithm where possible)
Printlevel                                  ...      1
Contraction scheme used                     ... SEGMENTED contraction
Prescreening option                         ... SCHWARTZ
   Thresh                                   ... 2.500e-11
   Tcut                                     ... 2.500e-12
   Tpresel                                  ... 2.500e-12 
Coulomb Range Separation                    ... NOT USED
Exchange Range Separation                   ... NOT USED
Multipole approximations                    ... NOT USED
Finite Nucleus Model                        ... NOT USED
CABS basis                                  ... NOT available
Auxiliary Coulomb fitting basis             ... AVAILABLE
   # of basis functions in Aux-J            ...    573
   # of shells in Aux-J                     ...    195
   Maximum angular momentum in Aux-J        ...      4
Auxiliary J/K fitting basis                 ... NOT available
Auxiliary Correlation fitting basis         ... NOT available
Auxiliary 'external' fitting basis          ... NOT available

Checking pre-screening integrals            ... done (  0.0 sec) Dimension = 90
   => SHARK Basis and OBASIS are compatible. Storing Pre-screening
Shell pair information
Shell pair cut-off parameter TPreSel        ...   2.5e-12
Total number of shell pairs                 ...      4095
Shell pairs after pre-screening             ...      3745
Total number of primitive shell pairs       ...     14349
Primitive shell pairs kept                  ...      9299
          la=0 lb=0:   1229 shell pairs
          la=1 lb=0:   1405 shell pairs
          la=1 lb=1:    424 shell pairs
          la=2 lb=0:    405 shell pairs
          la=2 lb=1:    241 shell pairs
          la=2 lb=2:     41 shell pairs

Checking whether 4 symmetric matrices of dimension 186 fit in memory
:Max Core in MB      =   4096.00
 MB in use           =      8.05
 MB left             =   4087.95
 MB needed           =      0.53
 Data fit in memory  = YES
Calculating RI/J V-Matrix + Cholesky decomp.... done (  0.0 sec)
Calculating Nuclear repulsion               ... done (  0.0 sec) ENN=    468.439847721698 Eh

Diagonalization of the overlap matrix:
Smallest eigenvalue                        ... 1.559e-03
Time for diagonalization                   ...    0.006 sec
Threshold for overlap eigenvalues          ... 1.000e-07
Number of eigenvalues below threshold      ... 0
Time for construction of square roots      ...    0.002 sec
Total time needed                          ...    0.009 sec

-------------------
DFT GRID GENERATION
-------------------

General Integration Accuracy     IntAcc      ... 4.388
Radial Grid Type                 RadialGrid  ... OptM3 with GC (2021)
Angular Grid (max. ang.)         AngularGrid ... 4 (Lebedev-302)
Angular grid pruning method      GridPruning ... 4 (adaptive)
Weight generation scheme         WeightScheme... mBecke (2022)
Basis function cutoff            BFCut       ... 1.0000e-11
Integration weight cutoff        WCut        ... 1.0000e-14
Partially contracted basis set               ... off
Rotationally invariant grid construction     ... off
Angular grids for H and He will be reduced by one unit

Total number of grid points                  ...    92855
Total number of batches                      ...     1462
Average number of points per batch           ...       63
Average number of grid points per atom       ...     4422

--------------------
COSX GRID GENERATION
--------------------

GRIDX 1
-------
General Integration Accuracy     IntAcc      ... 3.816
Radial Grid Type                 RadialGrid  ... OptM3 with GC (2021)
Angular Grid (max. ang.)         AngularGrid ... 1 (Lebedev-50)
Angular grid pruning method      GridPruning ... 4 (adaptive)
Weight generation scheme         WeightScheme... mBecke (2022)
Basis function cutoff            BFCut       ... 1.0000e-11
Integration weight cutoff        WCut        ... 1.0000e-14
Partially contracted basis set               ... on
Rotationally invariant grid construction     ... off
Angular grids for H and He will be reduced by one unit

Total number of grid points                  ...    11879
Total number of batches                      ...      103
Average number of points per batch           ...      115
Average number of grid points per atom       ...      566
UseSFitting                                  ... on

GRIDX 2
-------
General Integration Accuracy     IntAcc      ... 4.020
Radial Grid Type                 RadialGrid  ... OptM3 with GC (2021)
Angular Grid (max. ang.)         AngularGrid ... 2 (Lebedev-110)
Angular grid pruning method      GridPruning ... 4 (adaptive)
Weight generation scheme         WeightScheme... mBecke (2022)
Basis function cutoff            BFCut       ... 1.0000e-11
Integration weight cutoff        WCut        ... 1.0000e-14
Partially contracted basis set               ... on
Rotationally invariant grid construction     ... off
Angular grids for H and He will be reduced by one unit

Total number of grid points                  ...    25188
Total number of batches                      ...      206
Average number of points per batch           ...      122
Average number of grid points per atom       ...     1199
UseSFitting                                  ... on

GRIDX 3
-------
General Integration Accuracy     IntAcc      ... 4.338
Radial Grid Type                 RadialGrid  ... OptM3 with GC (2021)
Angular Grid (max. ang.)         AngularGrid ... 3 (Lebedev-194)
Angular grid pruning method      GridPruning ... 4 (adaptive)
Weight generation scheme         WeightScheme... mBecke (2022)
Basis function cutoff            BFCut       ... 1.0000e-11
Integration weight cutoff        WCut        ... 1.0000e-14
Partially contracted basis set               ... on
Rotationally invariant grid construction     ... off
Angular grids for H and He will be reduced by one unit

Total number of grid points                  ...    55084
Total number of batches                      ...      445
Average number of points per batch           ...      123
Average number of grid points per atom       ...     2623
UseSFitting                                  ... on
Grids setup in   1.5 sec
Initializing property integral containers    ... done (  0.0 sec)

SHARK setup successfully completed in   1.6 seconds

Maximum memory used throughout the entire STARTUP-calculation: 25.8 MB


           ************************************************************
           *        Program running with 6 parallel MPI-processes     *
           *              working on a common directory               *
           ************************************************************
-------------------------------------------------------------------------------
                                 ORCA GUESS
                   Start orbitals & Density for SCF / CASSCF
-------------------------------------------------------------------------------

------------
SCF SETTINGS
------------
Hamiltonian:
 Density Functional     Method          .... DFT(GTOs)
 Exchange Functional    Exchange        .... B88
   X-Alpha parameter    XAlpha          ....  0.666667
   Becke's b parameter  XBeta           ....  0.004200
 Correlation Functional Correlation     .... LYP
 LDA part of GGA corr.  LDAOpt          .... VWN-5
 Gradients option       PostSCFGGA      .... off
 Hybrid DFT is turned on
   Fraction HF Exchange ScalHFX         ....  0.200000
   Scaling of DF-GGA-X  ScalDFX         ....  0.720000
   Scaling of DF-GGA-C  ScalDFC         ....  0.810000
   Scaling of DF-LDA-C  ScalLDAC        ....  1.000000
   Perturbative correction              ....  0.000000
   NL short-range parameter             ....  4.800000
 RI-approximation to the Coulomb term is turned on
   Number of AuxJ basis functions       .... 573
   RIJ-COSX (HFX calculated with COS-X)).... on


General Settings:
 Integral files         IntName         .... orca
 Hartree-Fock type      HFTyp           .... RHF
 Total Charge           Charge          ....    0
 Multiplicity           Mult            ....    1
 Number of Electrons    NEL             ....   72
 Basis Dimension        Dim             ....  186
 Nuclear Repulsion      ENuc            ....    468.4398477217 Eh

Convergence Acceleration:
 AO-DIIS                CNVDIIS         .... on
   Start iteration      DIISMaxIt       ....    12
   Startup error        DIISStart       ....  0.200000
   # of expansion vecs  DIISMaxEq       ....     5
   Bias factor          DIISBfac        ....   1.050
   Max. coefficient     DIISMaxC        ....  10.000
 MO-DIIS                CNVKDIIS        .... off
 Trust-Rad. Augm. Hess. CNVTRAH         .... auto
   Auto Start mean grad. ratio tolernc. ....  1.125000
   Auto Start start iteration           ....    50
   Auto Start num. interpolation iter.  ....    10
   Max. Number of Micro iterations      ....    24
   Max. Number of Macro iterations      .... Maxiter - #DIIS iter
   Number of Davidson start vectors     ....     2
   Converg. threshold    (grad. norm)   ....   1.000e-05
   Grad. Scal. Fac. for Micro threshold ....   0.100
   Minimum threshold for Micro iter.    ....   1.000e-02
   NR start threshold (gradient norm)   ....   1.000e-04
   Initial trust radius                 ....   0.400
   Minimum AH scaling param. (alpha)    ....   1.000
   Maximum AH scaling param. (alpha)    .... 1000.000
   Quad. conv. algorithm                .... NR
   White noise on init. David. guess    .... on
   Maximum white noise                  ....   0.010
   Pseudo random numbers                .... off
   Inactive MOs                         .... canonical
   Orbital update algorithm             .... Taylor
   Preconditioner                       .... Diag
   Full preconditioner red. dimension   ....   250
 SOSCF                 CNVSOSCF           .... on
   Start iteration     SOSCFMaxIt         ....   150
   Startup grad/error  SOSCFStart         ....  0.003300
   Hessian update      SOSCFHessUp        .... L-BFGS
   Autom. constraints  SOSCFAutoConstrain .... off
 Level Shifting         CNVShift        .... on
   Level shift para.    LevelShift      ....    0.2500
   Turn off err/grad.   ShiftErr        ....    0.0010
 Zerner damping         CNVZerner       .... off
 Static damping         CNVDamp         .... on
   Fraction old density DampFac         ....    0.7000
   Max. Damping (<1)    DampMax         ....    0.9800
   Min. Damping (>=0)   DampMin         ....    0.0000
   Turn off err/grad.   DampErr         ....    0.1000

SCF Procedure:
 Maximum # iterations   MaxIter         ....   125
 SCF integral mode      SCFMode         .... Direct
   Integral package                     .... SHARK and LIBINT hybrid scheme
 Reset frequency        DirectResetFreq ....    20
 Integral Threshold     Thresh          ....  2.500e-11 Eh
 Primitive CutOff       TCut            ....  2.500e-12 Eh

Convergence Tolerance:
 Convergence Check Mode ConvCheckMode   .... Total+1el-Energy
 Convergence forced     ConvForced      .... 0
 Energy Change          TolE            ....  1.000e-08 Eh
 1-El. energy change                    ....  1.000e-05 Eh
 Orbital Gradient       TolG            ....  1.000e-05
 Orbital Rotation angle TolX            ....  1.000e-05
 DIIS Error             TolErr          ....  5.000e-07

------------------------------
INITIAL GUESS: MODEL POTENTIAL
------------------------------
Loading Hartree-Fock densities                     ... done
Calculating cut-offs                               ... done
Initializing the effective Hamiltonian             ... done
Setting up the integral package (SHARK)            ... done
Starting the Coulomb interaction                   ... done (   0.1 sec)
Making the grid                                    ... done (   0.2 sec)
Mapping shells                                     ... done
Starting the XC term evaluation                    ... done (   0.0 sec)
  promolecular density results
     # of electrons  =     71.994060271
     EX              =    -58.919857793
     EC              =     -2.412254692
     EX+EC           =    -61.332112485
Transforming the Hamiltonian                       ... done (   0.0 sec)
Diagonalizing the Hamiltonian                      ... done (   0.0 sec)
Back transforming the eigenvectors                 ... done (   0.0 sec)
Now organizing SCF variables                       ... done
                      ------------------
                      INITIAL GUESS DONE (   0.3 sec)
                      ------------------
             **** ENERGY FILE WAS UPDATED (orca.en.tmp) ****
Finished Guess after   0.5 sec
Maximum memory used throughout the entire GUESS-calculation: 10.9 MB


           ************************************************************
           *        Program running with 6 parallel MPI-processes     *
           *              working on a common directory               *
           ************************************************************

-------------------------------------------------------------------------------------------
                                      ORCA LEAN-SCF
                              memory conserving SCF solver
-------------------------------------------------------------------------------------------

----------------------------------------D-I-I-S--------------------------------------------
Iteration    Energy (Eh)           Delta-E    RMSDP     MaxDP     DIISErr   Damp  Time(sec)
-------------------------------------------------------------------------------------------
               ***  Starting incremental Fock matrix formation  ***
    1    -460.5338134894005861     0.00e+00  8.15e-03  1.01e-01  2.61e-01  0.700   1.6
    2    -460.6749974090075739    -1.41e-01  5.29e-03  5.58e-02  9.62e-02  0.700   0.9
                               ***Turning on AO-DIIS***
    3    -460.7276356269528605    -5.26e-02  2.13e-03  1.73e-02  3.68e-02  0.700   0.9
    4    -460.7601846437185031    -3.25e-02  3.37e-03  2.01e-02  1.67e-02  0.000   0.9
    5    -460.8316344670422495    -7.14e-02  7.42e-04  6.06e-03  7.24e-03  0.000   0.9
                              *** Initializing SOSCF ***
---------------------------------------S-O-S-C-F--------------------------------------
Iteration    Energy (Eh)           Delta-E    RMSDP     MaxDP     MaxGrad    Time(sec)
--------------------------------------------------------------------------------------
    6    -460.8320966977605622    -4.62e-04  2.40e-04  1.49e-03  2.19e-03     0.8
               *** Restarting incremental Fock matrix formation ***
    7    -460.8321048017070325    -8.10e-06  1.78e-04  1.74e-03  3.54e-04     1.6
    8    -460.8320998690741135     4.93e-06  7.88e-05  1.28e-03  6.68e-04     1.1
    9    -460.8321094266882483    -9.56e-06  2.99e-05  2.95e-04  7.11e-05     1.0
   10    -460.8321092807359491     1.46e-07  1.63e-05  1.66e-04  9.11e-05     1.0
   11    -460.8321095668172802    -2.86e-07  1.03e-05  1.60e-04  4.45e-05     1.0
   12    -460.8321095422971894     2.45e-08  6.78e-06  9.46e-05  6.10e-05     1.0
   13    -460.8321095857459113    -4.34e-08  6.03e-07  5.15e-06  1.43e-06     0.9
                  *** Gradient check signals convergence ***

               *****************************************************
               *                     SUCCESS                       *
               *           SCF CONVERGED AFTER  13 CYCLES          *
               *****************************************************

Recomputing exchange energy using gridx3       ... done (    2.508 sec)
Old exchange energy                            :    -11.962825912 Eh
New exchange energy                            :    -11.962804450 Eh
Exchange energy change after final integration :      0.000021462 Eh
Total energy after final integration           :   -460.832088124 Eh
             **** ENERGY FILE WAS UPDATED (orca.en.tmp) ****

----------------
TOTAL SCF ENERGY
----------------

Total Energy       :       -460.83208812402023 Eh          -12539.87863 eV

Components:
Nuclear Repulsion  :        468.43984772169779 Eh           12746.89630 eV
Electronic Energy  :       -929.27195730780068 Eh          -25286.77551 eV
One Electron Energy:      -1556.00525446836218 Eh          -42341.05555 eV
Two Electron Energy:        626.73329716056151 Eh           17054.28004 eV

Virial components:
Potential Energy   :       -917.55296996323273 Eh          -24967.88566 eV
Kinetic Energy     :        456.72088183921244 Eh           12428.00702 eV
Virial Ratio       :          2.00900157283865

DFT components:
N(Alpha)           :       36.000040331271 electrons
N(Beta)            :       36.000040331271 electrons
N(Total)           :       72.000080662542 electrons
E(X)               :      -47.564281048747 Eh       
E(C)               :       -2.851615707999 Eh       
E(XC)              :      -50.415896756747 Eh       

---------------
SCF CONVERGENCE
---------------

  Last Energy change         ...    4.3449e-08  Tolerance :   1.0000e-08
  Last MAX-Density change    ...    5.1517e-06  Tolerance :   1.0000e-07
  Last RMS-Density change    ...    6.0273e-07  Tolerance :   5.0000e-09
  Last DIIS Error            ...    2.1932e-03  Tolerance :   5.0000e-07
  Last Orbital Gradient      ...    1.4324e-06  Tolerance :   1.0000e-05
  Last Orbital Rotation      ...    5.2980e-06  Tolerance :   1.0000e-05


----------------
ORBITAL ENERGIES
----------------

  NO   OCC          E(Eh)            E(eV) 
   0   2.0000     -19.235781      -523.4322 
   1   2.0000     -19.197865      -522.4005 
   2   2.0000     -19.145352      -520.9715 
   3   2.0000     -10.332425      -281.1596 
   4   2.0000     -10.214272      -277.9445 
   5   2.0000     -10.184711      -277.1401 
   6   2.0000     -10.179906      -277.0093 
   7   2.0000     -10.179464      -276.9973 
   8   2.0000     -10.178457      -276.9699 
   9   2.0000      -1.169141       -31.8139 
  10   2.0000      -1.046466       -28.4758 
  11   2.0000      -0.927036       -25.2259 
  12   2.0000      -0.785436       -21.3728 
  13   2.0000      -0.753247       -20.4969 
  14   2.0000      -0.712716       -19.3940 
  15   2.0000      -0.644689       -17.5429 
  16   2.0000      -0.624345       -16.9893 
  17   2.0000      -0.521524       -14.1914 
  18   2.0000      -0.517525       -14.0826 
  19   2.0000      -0.500205       -13.6113 
  20   2.0000      -0.498474       -13.5642 
  21   2.0000      -0.472657       -12.8616 
  22   2.0000      -0.433046       -11.7838 
  23   2.0000      -0.427932       -11.6446 
  24   2.0000      -0.416630       -11.3371 
  25   2.0000      -0.413418       -11.2497 
  26   2.0000      -0.411227       -11.1900 
  27   2.0000      -0.398555       -10.8452 
  28   2.0000      -0.393577       -10.7098 
  29   2.0000      -0.382471       -10.4076 
  30   2.0000      -0.367374        -9.9967 
  31   2.0000      -0.359873        -9.7927 
  32   2.0000      -0.329587        -8.9685 
  33   2.0000      -0.309486        -8.4215 
  34   2.0000      -0.283286        -7.7086 
  35   2.0000      -0.241938        -6.5835 
  36   0.0000      -0.009766        -0.2658 
  37   0.0000       0.010134         0.2758 
  38   0.0000       0.025022         0.6809 
  39   0.0000       0.048982         1.3329 
  40   0.0000       0.081163         2.2086 
  41   0.0000       0.091688         2.4950 
  42   0.0000       0.094838         2.5807 
  43   0.0000       0.114202         3.1076 
  44   0.0000       0.120618         3.2822 
  45   0.0000       0.134012         3.6466 
  46   0.0000       0.140469         3.8224 
*Only the first 10 virtual orbitals were printed.

                    ********************************
                    * MULLIKEN POPULATION ANALYSIS *
                    ********************************

-----------------------
MULLIKEN ATOMIC CHARGES
-----------------------
   0 C :    0.043646
   1 C :    0.161266
   2 H :    0.052045
   3 H :    0.063353
   4 H :    0.043810
   5 O :   -0.259677
   6 O :   -0.127294
   7 H :    0.190559
   8 O :   -0.153252
   9 C :   -0.118528
  10 C :   -0.105455
  11 C :    0.068144
  12 H :   -0.008944
  13 H :   -0.000677
  14 H :    0.022104
  15 H :    0.021569
  16 C :    0.062810
  17 H :    0.000163
  18 H :    0.005275
  19 H :    0.016272
  20 H :    0.022810
Sum of atomic charges:    0.0000000

--------------------------------
MULLIKEN REDUCED ORBITAL CHARGES
--------------------------------
  0 C s       :     2.938760  s :     2.938760
      pz      :     0.950652  p :     2.992657
      px      :     1.043378
      py      :     0.998628
      dz2     :     0.007946  d :     0.024937
      dxz     :     0.004318
      dyz     :     0.003060
      dx2y2   :     0.005874
      dxy     :     0.003739

  1 C s       :     3.083913  s :     3.083913
      pz      :     0.960173  p :     2.624287
      px      :     0.808961
      py      :     0.855153
      dz2     :     0.023675  d :     0.130534
      dxz     :     0.011422
      dyz     :     0.046359
      dx2y2   :     0.020826
      dxy     :     0.028253

  2 H s       :     0.924379  s :     0.924379
      pz      :     0.006022  p :     0.023575
      px      :     0.010735
      py      :     0.006819

  3 H s       :     0.911904  s :     0.911904
      pz      :     0.006307  p :     0.024744
      px      :     0.012383
      py      :     0.006053

  4 H s       :     0.932861  s :     0.932861
      pz      :     0.003915  p :     0.023329
      px      :     0.004811
      py      :     0.014603

  5 O s       :     3.759385  s :     3.759385
      pz      :     1.658078  p :     4.481704
      px      :     1.442370
      py      :     1.381257
      dz2     :     0.002232  d :     0.018588
      dxz     :     0.000823
      dyz     :     0.005105
      dx2y2   :     0.005280
      dxy     :     0.005146

  6 O s       :     3.786736  s :     3.786736
      pz      :     1.053829  p :     4.322079
      px      :     1.906749
      py      :     1.361501
      dz2     :     0.009006  d :     0.018478
      dxz     :     0.002683
      dyz     :     0.003022
      dx2y2   :     0.002521
      dxy     :     0.001246

  7 H s       :     0.739059  s :     0.739059
      pz      :     0.011403  p :     0.070382
      px      :     0.019650
      py      :     0.039330

  8 O s       :     3.805042  s :     3.805042
      pz      :     1.047223  p :     4.324097
      px      :     1.744885
      py      :     1.531990
      dz2     :     0.006378  d :     0.024113
      dxz     :     0.003767
      dyz     :     0.007936
      dx2y2   :     0.003245
      dxy     :     0.002786

  9 C s       :     3.154901  s :     3.154901
      pz      :     0.970362  p :     2.928159
      px      :     0.996175
      py      :     0.961621
      dz2     :     0.009372  d :     0.035468
      dxz     :     0.005769
      dyz     :     0.010453
      dx2y2   :     0.003846
      dxy     :     0.006028

 10 C s       :     3.147187  s :     3.147187
      pz      :     0.946843  p :     2.922593
      px      :     0.989109
      py      :     0.986642
      dz2     :     0.008117  d :     0.035674
      dxz     :     0.004095
      dyz     :     0.008806
      dx2y2   :     0.006823
      dxy     :     0.007833

 11 C s       :     2.929780  s :     2.929780
      pz      :     0.985856  p :     2.973127
      px      :     1.002188
      py      :     0.985083
      dz2     :     0.006562  d :     0.028949
      dxz     :     0.005800
      dyz     :     0.003605
      dx2y2   :     0.004597
      dxy     :     0.008384

 12 H s       :     0.986053  s :     0.986053
      pz      :     0.012946  p :     0.022891
      px      :     0.006390
      py      :     0.003555

 13 H s       :     0.977358  s :     0.977358
      pz      :     0.012909  p :     0.023319
      px      :     0.006074
      py      :     0.004337

 14 H s       :     0.954527  s :     0.954527
      pz      :     0.008306  p :     0.023369
      px      :     0.009947
      py      :     0.005117

 15 H s       :     0.954866  s :     0.954866
      pz      :     0.005168  p :     0.023566
      px      :     0.010276
      py      :     0.008122

 16 C s       :     2.938878  s :     2.938878
      pz      :     0.974762  p :     2.969262
      px      :     0.996021
      py      :     0.998479
      dz2     :     0.006935  d :     0.029050
      dxz     :     0.007427
      dyz     :     0.004924
      dx2y2   :     0.002686
      dxy     :     0.007077

 17 H s       :     0.977374  s :     0.977374
      pz      :     0.005066  p :     0.022463
      px      :     0.005971
      py      :     0.011426

 18 H s       :     0.971353  s :     0.971353
      pz      :     0.005405  p :     0.023372
      px      :     0.005965
      py      :     0.012002

 19 H s       :     0.960462  s :     0.960462
      pz      :     0.007832  p :     0.023267
      px      :     0.009223
      py      :     0.006211

 20 H s       :     0.953829  s :     0.953829
      pz      :     0.004274  p :     0.023361
      px      :     0.010250
      py      :     0.008837



                     *******************************
                     * LOEWDIN POPULATION ANALYSIS *
                     *******************************

----------------------
LOEWDIN ATOMIC CHARGES
----------------------
   0 C :   -0.063823
   1 C :    0.079607
   2 H :    0.051596
   3 H :    0.059626
   4 H :    0.044023
   5 O :   -0.177198
   6 O :   -0.037009
   7 H :    0.058096
   8 O :   -0.002380
   9 C :   -0.056833
  10 C :   -0.049681
  11 C :   -0.060117
  12 H :    0.018714
  13 H :    0.020971
  14 H :    0.034515
  15 H :    0.031519
  16 C :   -0.061330
  17 H :    0.024221
  18 H :    0.023364
  19 H :    0.027658
  20 H :    0.034460

-------------------------------
LOEWDIN REDUCED ORBITAL CHARGES
-------------------------------
  0 C s       :     2.841389  s :     2.841389
      pz      :     1.011957  p :     3.154993
      px      :     1.076858
      py      :     1.066179
      dz2     :     0.022545  d :     0.067441
      dxz     :     0.011876
      dyz     :     0.008962
      dx2y2   :     0.015281
      dxy     :     0.008777

  1 C s       :     2.858117  s :     2.858117
      pz      :     1.000192  p :     2.774674
      px      :     0.801060
      py      :     0.973422
      dz2     :     0.052624  d :     0.287603
      dxz     :     0.019738
      dyz     :     0.109314
      dx2y2   :     0.049786
      dxy     :     0.056141

  2 H s       :     0.882601  s :     0.882601
      pz      :     0.017902  p :     0.065804
      px      :     0.029415
      py      :     0.018487

  3 H s       :     0.873059  s :     0.873059
      pz      :     0.017793  p :     0.067315
      px      :     0.034470
      py      :     0.015051

  4 H s       :     0.889363  s :     0.889363
      pz      :     0.012157  p :     0.066614
      px      :     0.012559
      py      :     0.041897

  5 O s       :     3.541273  s :     3.541273
      pz      :     1.666031  p :     4.604155
      px      :     1.438741
      py      :     1.499382
      dz2     :     0.004116  d :     0.031770
      dxz     :     0.001102
      dyz     :     0.009472
      dx2y2   :     0.010485
      dxy     :     0.006594

  6 O s       :     3.565615  s :     3.565615
      pz      :     1.131252  p :     4.439239
      px      :     1.887419
      py      :     1.420568
      dz2     :     0.015382  d :     0.032155
      dxz     :     0.004283
      dyz     :     0.005245
      dx2y2   :     0.005538
      dxy     :     0.001707

  7 H s       :     0.748859  s :     0.748859
      pz      :     0.031176  p :     0.193045
      px      :     0.052417
      py      :     0.109453

  8 O s       :     3.543618  s :     3.543618
      pz      :     1.103863  p :     4.416345
      px      :     1.730836
      py      :     1.581646
      dz2     :     0.012707  d :     0.042416
      dxz     :     0.006976
      dyz     :     0.014329
      dx2y2   :     0.004815
      dxy     :     0.003589

  9 C s       :     2.876191  s :     2.876191
      pz      :     1.031817  p :     3.092018
      px      :     0.994368
      py      :     1.065834
      dz2     :     0.024173  d :     0.088624
      dxz     :     0.012256
      dyz     :     0.027817
      dx2y2   :     0.011106
      dxy     :     0.013272

 10 C s       :     2.877014  s :     2.877014
      pz      :     1.047825  p :     3.083686
      px      :     0.984032
      py      :     1.051829
      dz2     :     0.021691  d :     0.088980
      dxz     :     0.009307
      dyz     :     0.024223
      dx2y2   :     0.017317
      dxy     :     0.016442

 11 C s       :     2.833899  s :     2.833899
      pz      :     1.058896  p :     3.152854
      px      :     1.060631
      py      :     1.033327
      dz2     :     0.017142  d :     0.073364
      dxz     :     0.014627
      dyz     :     0.008350
      dx2y2   :     0.011849
      dxy     :     0.021396

 12 H s       :     0.912656  s :     0.912656
      pz      :     0.037770  p :     0.068630
      px      :     0.019554
      py      :     0.011306

 13 H s       :     0.914332  s :     0.914332
      pz      :     0.036537  p :     0.064696
      px      :     0.015517
      py      :     0.012643

 14 H s       :     0.901703  s :     0.901703
      pz      :     0.022412  p :     0.063782
      px      :     0.026622
      py      :     0.014749

 15 H s       :     0.903994  s :     0.903994
      pz      :     0.012361  p :     0.064487
      px      :     0.028236
      py      :     0.023891

 16 C s       :     2.835142  s :     2.835142
      pz      :     1.034292  p :     3.152544
      px      :     1.057737
      py      :     1.060515
      dz2     :     0.018506  d :     0.073644
      dxz     :     0.019105
      dyz     :     0.011304
      dx2y2   :     0.006703
      dxy     :     0.018025

 17 H s       :     0.908879  s :     0.908879
      pz      :     0.016490  p :     0.066900
      px      :     0.018607
      py      :     0.031803

 18 H s       :     0.911804  s :     0.911804
      pz      :     0.015690  p :     0.064832
      px      :     0.015335
      py      :     0.033807

 19 H s       :     0.908758  s :     0.908758
      pz      :     0.022777  p :     0.063584
      px      :     0.025400
      py      :     0.015406

 20 H s       :     0.901795  s :     0.901795
      pz      :     0.012286  p :     0.063745
      px      :     0.027709
      py      :     0.023750



                      *****************************
                      * MAYER POPULATION ANALYSIS *
                      *****************************

  NA   - Mulliken gross atomic population
  ZA   - Total nuclear charge
  QA   - Mulliken gross atomic charge
  VA   - Mayer's total valence
  BVA  - Mayer's bonded valence
  FA   - Mayer's free valence

  ATOM       NA         ZA         QA         VA         BVA        FA
  0 C      5.9564     6.0000     0.0436     3.9093     3.9093    -0.0000
  1 C      5.8387     6.0000     0.1613     4.3216     4.3216    -0.0000
  2 H      0.9480     1.0000     0.0520     1.0024     1.0024     0.0000
  3 H      0.9366     1.0000     0.0634     1.0199     1.0199    -0.0000
  4 H      0.9562     1.0000     0.0438     1.0024     1.0024    -0.0000
  5 O      8.2597     8.0000    -0.2597     2.2399     2.2399    -0.0000
  6 O      8.1273     8.0000    -0.1273     1.9706     1.9706     0.0000
  7 H      0.8094     1.0000     0.1906     1.0560     1.0560     0.0000
  8 O      8.1533     8.0000    -0.1533     2.1961     2.1961    -0.0000
  9 C      6.1185     6.0000    -0.1185     4.0836     4.0836     0.0000
 10 C      6.1055     6.0000    -0.1055     4.0949     4.0949     0.0000
 11 C      5.9319     6.0000     0.0681     3.9401     3.9401    -0.0000
 12 H      1.0089     1.0000    -0.0089     1.0164     1.0164     0.0000
 13 H      1.0007     1.0000    -0.0007     0.9961     0.9961    -0.0000
 14 H      0.9779     1.0000     0.0221     0.9856     0.9856    -0.0000
 15 H      0.9784     1.0000     0.0216     0.9982     0.9982    -0.0000
 16 C      5.9372     6.0000     0.0628     3.9343     3.9343     0.0000
 17 H      0.9998     1.0000     0.0002     0.9848     0.9848     0.0000
 18 H      0.9947     1.0000     0.0053     0.9973     0.9973    -0.0000
 19 H      0.9837     1.0000     0.0163     0.9828     0.9828     0.0000
 20 H      0.9772     1.0000     0.0228     0.9851     0.9851     0.0000

  Mayer bond orders larger than 0.100000
B(  0-C ,  1-C ) :   1.0614 B(  0-C ,  2-H ) :   0.9474 B(  0-C ,  3-H ) :   0.9375 
B(  0-C ,  4-H ) :   0.9488 B(  1-C ,  5-O ) :   1.9775 B(  1-C ,  8-O ) :   1.1245 
B(  5-O ,  7-H ) :   0.1179 B(  6-O ,  7-H ) :   0.9081 B(  6-O ,  8-O ) :   0.9359 
B(  9-C , 10-C ) :   1.9470 B(  9-C , 16-C ) :   1.0818 B(  9-C , 17-H ) :   0.9507 
B( 10-C , 11-C ) :   1.0958 B( 10-C , 12-H ) :   0.9382 B( 11-C , 13-H ) :   0.9597 
B( 11-C , 14-H ) :   0.9485 B( 11-C , 15-H ) :   0.9467 B( 16-C , 18-H ) :   0.9616 
B( 16-C , 19-H ) :   0.9502 B( 16-C , 20-H ) :   0.9493 

-------
TIMINGS
-------

Total SCF time: 0 days 0 hours 0 min 17 sec 

Total time                  ....      17.155 sec
Sum of individual times     ....      16.400 sec  ( 95.6%)

SCF preparation             ....       0.215 sec  (  1.3%)
Fock matrix formation       ....      15.769 sec  ( 91.9%)
  Startup                   ....       0.007 sec  (  0.0% of F)
  Split-RI-J                ....       1.541 sec  (  9.8% of F)
  Chain of spheres X        ....      12.047 sec  ( 76.4% of F)
  XC integration            ....       2.667 sec  ( 16.9% of F)
    XC Preparation          ....       0.000 sec  (  0.0% of XC)
    Basis function eval.    ....       0.866 sec  ( 32.5% of XC)
    Density eval.           ....       0.502 sec  ( 18.8% of XC)
    XC-Functional eval.     ....       0.138 sec  (  5.2% of XC)
    XC-Potential eval.      ....       0.526 sec  ( 19.7% of XC)
Diagonalization             ....       0.000 sec  (  0.0%)
Density matrix formation    ....       0.056 sec  (  0.3%)
Total Energy calculation    ....       0.024 sec  (  0.1%)
Population analysis         ....       0.032 sec  (  0.2%)
Orbital Transformation      ....       0.033 sec  (  0.2%)
Orbital Orthonormalization  ....       0.000 sec  (  0.0%)
DIIS solution               ....       0.156 sec  (  0.9%)
SOSCF solution              ....       0.116 sec  (  0.7%)
Finished LeanSCF after  17.2 sec

Maximum memory used throughout the entire LEANSCF-calculation: 17.2 MB


-------------------------------------------------------------------------------
                          DFT DISPERSION CORRECTION                            
                                                                               
                              DFTD3 V3.1  Rev 1                                
                          USING Becke-Johnson damping                          
-------------------------------------------------------------------------------
The B3LYP functional is recognized
Active option DFTDOPT                   ...         4   

molecular C6(AA) [au] = 3462.269151 


            DFT-D V3
 parameters
 s6 scaling factor         :     1.0000 
 a1 scaling factor         :     0.3981 
 s8 scaling factor         :     1.9889 
 a2 scaling factor         :     4.4211 
 ad hoc parameters k1-k3   :    16.0000     1.3333    -4.0000 

 Edisp/kcal,au: -17.972867316070  -0.028641584138 
 E6   /kcal   :  -8.945580643 
 E8   /kcal   :  -9.027286673 
 % E8         :  50.227303824 

-------------------------   ----------------
Dispersion correction           -0.028641584
-------------------------   ----------------


-------------------------   --------------------
FINAL SINGLE POINT ENERGY      -460.860729708158
-------------------------   --------------------



           ************************************************************
           *        Program running with 6 parallel MPI-processes     *
           *              working on a common directory               *
           ************************************************************
------------------------------------------------------------------------------
                         ORCA SCF GRADIENT CALCULATION
------------------------------------------------------------------------------

Nuc. rep. gradient        (SHARK) ... done (  0.0 sec)
HCore & Overlap gradient  (SHARK) ... done (  0.1 sec)
Split-RIJ-J gradient      (SHARK) ... done (  0.4 sec)
done (  6.7 sec)
XC gradient                       ... done (  1.7 sec)
Dispersion correction             ... done (  0.0 sec)

-------------------
DISPERSION GRADIENT
-------------------

   1   C   :    0.000655340   -0.000136294   -0.000433113
   2   C   :    0.000865463   -0.000030574    0.000065962
   3   H   :    0.000144467   -0.000003764   -0.000176353
   4   H   :    0.000372604   -0.000070224   -0.000352946
   5   H   :    0.000175873   -0.000135583   -0.000197430
   6   O   :    0.000548054    0.000298627    0.000229125
   7   O   :    0.000292858   -0.000094512    0.000426920
   8   H   :    0.000170532    0.000017991    0.000245524
   9   O   :    0.000467476   -0.000190365    0.000337003
  10   C   :   -0.000642279    0.000595802   -0.000062045
  11   C   :   -0.000806737   -0.000042871    0.000342127
  12   C   :   -0.000524692   -0.000521528    0.000170686
  13   H   :   -0.000262516    0.000052066    0.000264645
  14   H   :   -0.000178289   -0.000288273   -0.000027801
  15   H   :   -0.000148912   -0.000205429    0.000087796
  16   H   :   -0.000236077   -0.000369957    0.000048190
  17   C   :   -0.000332301    0.000395901   -0.000373731
  18   H   :   -0.000158947    0.000316576    0.000075137
  19   H   :   -0.000170946    0.000076767   -0.000267724
  20   H   :   -0.000104887    0.000184461   -0.000251740
  21   H   :   -0.000126082    0.000151184   -0.000150233

Difference to translation invariance:
           :    0.0000000000    0.0000000000    0.0000000000

Difference to rotation invariance:
           :   -0.0000000000    0.0000000000    0.0000000000

Norm of the Dispersion gradient    ...    0.0025361178
RMS gradient                       ...    0.0003195208
MAX gradient                       ...    0.0008654625

------------------
CARTESIAN GRADIENT
------------------

   1   C   :    0.000122083    0.000020539    0.000070180
   2   C   :    0.000073153   -0.000145835   -0.000113650
   3   H   :   -0.000056934    0.000006026   -0.000042746
   4   H   :    0.000058889   -0.000013388    0.000004334
   5   H   :   -0.000115614   -0.000053283    0.000015403
   6   O   :   -0.000010960    0.000070511    0.000094936
   7   O   :   -0.000053568   -0.000032995    0.000095202
   8   H   :    0.000069934    0.000080982    0.000025400
   9   O   :   -0.000001855    0.000014324   -0.000100278
  10   C   :   -0.000073952    0.000015328   -0.000082141
  11   C   :   -0.000000953   -0.000063214    0.000153070
  12   C   :    0.000171179    0.000037520    0.000036028
  13   H   :   -0.000052158   -0.000022237   -0.000061626
  14   H   :    0.000048120    0.000001634    0.000024553
  15   H   :   -0.000013272    0.000080745   -0.000063663
  16   H   :   -0.000001271   -0.000094965    0.000022101
  17   C   :   -0.000112750    0.000032059   -0.000017594
  18   H   :   -0.000021327    0.000013898   -0.000009713
  19   H   :    0.000022433   -0.000013889   -0.000030120
  20   H   :   -0.000012065   -0.000005384    0.000011086
  21   H   :   -0.000039111    0.000071624   -0.000030761

Difference to translation invariance:
           :    0.0000000000    0.0000000000    0.0000000001

Difference to rotation invariance:
           :   -0.0002801085   -0.0000544249    0.0001087202

Norm of the Cartesian gradient     ...    0.0005107461
RMS gradient                       ...    0.0000643480
MAX gradient                       ...    0.0001711786

-------
TIMINGS
-------

Total SCF gradient time     ....        8.938 sec

Densities                   ....       0.001 sec  (  0.0%)
One electron gradient       ....       0.092 sec  (  1.0%)
RI-J Coulomb gradient       ....       0.447 sec  (  5.0%)
COSX gradient               ....       6.700 sec  ( 75.0%)
XC gradient                 ....       1.662 sec  ( 18.6%)

Maximum memory used throughout the entire SCFGRAD-calculation: 31.0 MB


           ************************************************************
           *        Program running with 6 parallel MPI-processes     *
           *              working on a common directory               *
           ************************************************************

------------------------------------------------------------------------------
                              ORCA PROPERTY CALCULATIONS
------------------------------------------------------------------------------

GBWName                                 ... orca.gbw
Number of atoms                         ...     21
Number of basis functions               ...    186
Max core memory                         ...   4096 MB

Electric properties:
Dipole moment                           ... YES
Quadrupole moment                       ...  NO
Static polarizability (Dipole/Dipole)   ...  NO
Static polarizability (Dipole/Quad.)    ...  NO
Static polarizability (Quad./Quad.)     ...  NO
Static polarizability (Velocity)        ...  NO
Static hyperpolarizability              ...  NO

Atomic electric properties:
Dipole moment                           ...  NO
Quadrupole moment                       ...  NO
Static polarizability                   ...  NO

Choice of electric origin               ... Center of mass
Position of electric origin             ...    -0.176031    -0.510344     0.740092

General magnetic properties:
Magnetizability                         ...  NO

EPR properties:
g-Tensor (aka g-matrix)                 ...  NO
Zero-Field splitting spin-orbit         ...  NO
Zero-field splitting spin-spin          ...  NO
Hyperfine couplings                     ...  NO (   0 nuclei)
Quadrupole couplings                    ...  NO (   0 nuclei)
Contact density                         ...  NO (   0 nuclei)

NMR properties:
Chemical shifts                         ...  NO (   0 nuclei)
Spin-rotation constants                 ...  NO (   0 nuclei)
Spin-spin couplings                     ...  NO (   0 nuclei,    0 pairs)

Choice of magnetic origin               ... GIAO
Position of magnetic origin             ...     0.000000     0.000000     0.000000

Properties with geometric perturbations:
SCF Hessian                             ...  NO
IR spectrum                             ...  NO
VCD spectrum                            ...  NO
X-ray spectroscopy properties:
SCF XES/XAS/RIXS spectra                ...  NO

SCF SOC stabilization energy            ...  NO
Diagonal Born-Oppenheimer correction    ...  NO

-------------
DIPOLE MOMENT
-------------

Method             : SCF
Type of density    : Electron Density
Multiplicity       :   1
Irrep              :   0
Energy             :  -460.8320881240202311 Eh
Basis              : AO
                                X                 Y                 Z
Electronic contribution:      9.558831001       0.059413745       8.066658688
Nuclear contribution   :     -9.557475335      -0.139847503      -8.961551649
                        -----------------------------------------
Total Dipole Moment    :      0.001355666      -0.080433758      -0.894892962
                        -----------------------------------------
Magnitude (a.u.)       :      0.898501441
Magnitude (Debye)      :      2.283809166



--------------------
Rotational spectrum 
--------------------
 
Rotational constants in cm-1:             0.065280             0.032001             0.027529 
Rotational constants in MHz :          1957.052206           959.369112           825.312448 

Dipole components along the rotational axes: 
x,y,z [a.u.] :     0.377893     0.574431     0.578386 
x,y,z [Debye]:     0.960528     1.460087     1.470142 

 

Dipole moment calculation done in   0.0 sec 

Maximum memory used throughout the entire PROP-calculation: 9.3 MB

--------------------------------
SUGGESTED CITATIONS FOR THIS RUN
--------------------------------

Below you find a list of papers that are relevant to this ORCA run
We neither can nor want to force you to cite these papers, but we appreciate if you do
You receive ORCA, which is the product of decades of hard work by many enthusiastic individuals, for free
The only thing we kindly ask in return is that you cite our papers,
We deeply appreciate it, if you show your appreciation for ORCA by not just citing the generic ORCA reference.

Please note that relegating all ORCA citations to the supporting information does *not* help us.
SI sections are not indexed - citations you put there will not count into any citation statistics
But we need these citations in order to attract the funding resources that allow us to do what we are doing

Therefore, if you are a happy ORCA user, please consider citing a few of the papers listed below in the main body of your paper

In addition to the list printed below, the program has created the file orca.bibtex that contains the list in bibtex format
You can import this file easily into all common literature databanks and citation aid programs


List of essential papers. We consider these as the minimum necessary citations

  1. Neese, F.
     Software update: the ORCA program system, version 6.0
     WIRES Comput. Molec. Sci. 2025 15(1), e70019
     doi.org/10.1002/wcms.7019

List of papers to cite with high priority. The work reported in these papers was absolutely
necessary for this run to complete.
Our perspective: the developers of density functionals and basis sets usually get cited in chemistry papers
Good! But without the algorithms to do something with them, the functionals or basis sets would not do anything.
Hence, in our opinion, the algorithm design and method developments papers are equally worthy of getting cited

  1. Neese, F.
     An improvement of the resolution of the identity approximation for the formation of the Coulomb matrix
     J. Comp. Chem. 2003 24(14), 1740-1747
     doi.org/10.1002/jcc.10318
  2. Neese, F.; Wennmohs, F.; Hansen, A.; Becker, U.
     Efficient, approximate and parallel Hartree-Fock and hybrid DFT calculations. A 'chain-of-spheres' algorithm for the Hartree-Fock exchange
     Chem. Phys. 2009 356(1-3), 98-109
     doi.org/10.1016/j.chemphys.2008.10.036
  3. Grimme, S.; Antony, J.; Ehrlich, S.; Krieg, H.
     A consistent and accurate ab initio parametrization of density functional dispersion correction (DFT-D) for the 94 elements H-Pu
     J. Chem. Phys. 2010 132 , 154104
     doi.org/10.1063/1.3382344
  4. Grimme, S.; Ehrlich, S.; Goerigk, L.
     Effect of the damping function in dispersion corrected density functional theory
     J. Comput. Chem. 2011 32(7), 1456-1465
     doi.org/10.1002/jcc.21759
  5. Helmich-Paris, B.; de Souza, B.; Neese, F.; Izsák, R.
     An improved chain of spheres for exchange algorithm
     J. Chem. Phys. 2021 155(10), 104109
     doi.org/10.1063/5.0058766
  6. Neese, F.
     The SHARK Integral Generation and Digestion System
     J. Comp. Chem. 2022 44(3), 381
     doi.org/10.1002/jcc.26942

List of suggested additional citations. These are papers that are important in the 'surrounding' of 
of this run, or papers that preceded the highly important papers. If you like your results we are grateful for a citation.

  1. Izsak, R.; Neese, F.
     An overlap fitted chain of spheres exchange method
     J. Chem. Phys. 2011 135 , 144105
     doi.org/10.1063/1.3646921
  2. Izsak, R.; Hansen, A.; Neese, F.
     The resolution of identity and chain of spheres approximations for the LPNO-CCSD singles Fock term
     Molec. Phys. 2012 110 , 2413-2417
     doi.org/10.1080/00268976.2012.687466
  3. Neese, F.
     The ORCA program system
     WIRES Comput. Molec. Sci. 2012 2(1), 73-78
     doi.org/10.1002/wcms.81
  4. Izsak, R.; Neese, F.; Klopper, W.
     Robust fitting techniques in the chain of spheres approximation to the Fock exchange: The role of the complementary space
     J. Chem. Phys. 2013 139 , 
     doi.org/10.1063/1.4819264
  5. Neese, F.
     Software update: the ORCA program system, version 4.0
     WIRES Comput. Molec. Sci. 2018 8(1), 1-6
     doi.org/10.1002/wcms.1327
  6. Neese, F.; Wennmohs, F.; Becker, U.; Riplinger, C.
     The ORCA quantum chemistry program package
     J. Chem. Phys. 2020 152(22), 224108
     doi.org/10.1063/5.0004608
  7. Neese, F.
     Software update: The ORCA program system—Version 5.0
     WIRES Comput. Molec. Sci. 2022 12(1), e1606
     doi.org/10.1002/wcms.1606

List of optional additional citations

  1. Neese, F.
     Approximate second-order SCF convergence for spin unrestricted wavefunctions
     Chem. Phys. Lett. 2000 325(1-3), 93-98
     doi.org/10.1016/s0009-2614(00)00662-x

Timings for individual modules:

Sum of individual times          ...       30.268 sec (=   0.504 min)
Startup calculation              ...        2.034 sec (=   0.034 min)   6.7 %
SCF iterations                   ...       18.314 sec (=   0.305 min)  60.5 %
Property calculations            ...        0.484 sec (=   0.008 min)   1.6 %
SCF Gradient evaluation          ...        9.437 sec (=   0.157 min)  31.2 %
                             ****ORCA TERMINATED NORMALLY****
TOTAL RUN TIME: 0 days 0 hours 0 minutes 30 seconds 857 msec
