
                                 *****************
                                 * O   R   C   A *
                                 *****************

                                            #,                                       
                                            ###                                      
                                            ####                                     
                                            #####                                    
                                            ######                                   
                                           ########,                                 
                                     ,,################,,,,,                         
                               ,,#################################,,                 
                          ,,##########################################,,             
                       ,#########################################, ''#####,          
                    ,#############################################,,   '####,        
                  ,##################################################,,,,####,       
                ,###########''''           ''''###############################       
              ,#####''   ,,,,##########,,,,          '''####'''          '####       
            ,##' ,,,,###########################,,,                        '##       
           ' ,,###''''                  '''############,,,                           
         ,,##''                                '''############,,,,        ,,,,,,###''
      ,#''                                            '''#######################'''  
     '                                                          ''''####''''         
             ,#######,   #######,   ,#######,      ##                                
            ,#'     '#,  ##    ##  ,#'     '#,    #''#        ,####,    ,#,          
            ##       ##  ##   ,#'  ##            #'  '#       #'       ,# #          
            ##       ##  #######   ##           ,######,      #####,      #          
            '#,     ,#'  ##    ##  '#,     ,#' ,#      #,     #,   #      #          
             '#######'   ##     ##  '#######'  #'      '#     '####' #    #          



                #########################################################
                #                        -***-                          #
                #          Department of theory and spectroscopy        #
                #                                                       #
                #                      Frank Neese                      #
                #                                                       #
                #     Directorship, Architecture, Infrastructure        #
                #                    SHARK, DRIVERS                     #
                #        Core code/Algorithms in most modules           #
                #                                                       #
                #        Max Planck Institute fuer Kohlenforschung      #
                #                Kaiser Wilhelm Platz 1                 #
                #                 D-45470 Muelheim/Ruhr                 #
                #                      Germany                          #
                #                                                       #
                #                  All rights reserved                  #
                #                        -***-                          #
                #########################################################


                         Program Version 6.1.0  -  RELEASE   -
                                (GIT: $679e74b$)
                          ($2025-06-10 18:02:51 +0200$)


 With contributions from (in alphabetic order):
[Max-Planck-Institut fuer Kohlenforschung]                               
  Daniel Aravena         : Magnetic Suceptibility                        
  Michael Atanasov       : Ab Initio Ligand Field Theory (pilot matlab implementation)
  Alexander A. Auer      : GIAO ZORA, VPT2 properties, NMR spectrum      
  Ute Becker             : All parallelization in ORCA, NUMFREQ, NUMCALC 
  Giovanni Bistoni       : ED, misc. LED, open-shell LED, HFLD           
  Dmytro Bykov           : pre 5.0 version of the SCF Hessian            
  Marcos Casanova-Páez   : Triplet and SCS-CIS(D). UHF-(DLPNO)-IP/EA/STEOM-CCSD. UHF-CVS-IP/STEOM-CCSD   
  Vijay G. Chilkuri      : MRCI spin determinant printing, contributions to CSF-ICE 
  Pauline Colinet        : FMM embedding                                 
  Dipayan Datta          : RHF DLPNO-CCSD density                        
  Achintya Kumar Dutta   : EOM-CC, STEOM-CC                              
  Nicolas Foglia         : Exact transition moments, OPA infrastructure, MCD improvements    
  Dmitry Ganyushin       : Spin-Orbit,Spin-Spin,Magnetic field MRCI      
  Miquel Garcia-Rates    : C-PCM and meta-GGA Hessian, CCSD/C-PCM, Gaussian charge scheme 
  Tiago L. C. Gouveia    : GS-ROHF, GS-ROCIS                             
  Yang Guo               : DLPNO-NEVPT2, F12-NEVPT2, CIM, IAO-localization        
  Andreas Hansen         : Spin unrestricted coupled pair/coupled cluster methods 
  Ingolf Harden          : AUTO-CI MPn and infrastructure                
  Benjamin Helmich-Paris : MC-RPA, TRAH-(SCF,CASSCF), AVAS, COSX integrals, SCF dyn. polar., MC-PDFT, srDFT 
  Lee Huntington         : MR-EOM, pCC                                   
  Robert Izsak           : Overlap fitted RIJCOSX, COSX-SCS-MP3, EOM     
  Riya Kayal             : Wick's Theorem for AUTO-CI, AUTO-CI UHF-CCSDT 
  Emily Kempfer          : AUTO-CI RHF CISDT and CCSDT, approximate NEVPT4
  Christian Kollmar      : KDIIS, OOCD, Brueckner-CCSD(T), CCSD density, CASPT2, CASPT2-K, improved NEVPT2 
  Axel Koslowski         : Symmetry handling                             
  Simone Kossmann        : meta-GGA functionals, TD-DFT gradient, OOMP2, (MP2 Hessian; deprecated post 5.0) 
  Lucas Lang             : DCDCAS, Hyperfine gauge corrections, ICE-SOC+SSC
  Marvin Lechner         : AUTO-CI (C++ implementation), FIC-MRCC        
  Spencer Leger          : CASSCF response                               
  Dagmar Lenk            : GEPOL surface, SMD, ORCA-2-JSON               
  Dimitrios Liakos       : Extrapolation schemes; Compound Job, Property file
  Dimitrios Manganas     : Further ROCIS development; embedding schemes. LFT, Crystal Embedding 
  Dimitrios Pantazis     : SARC Basis sets                               
  Anastasios Papadopoulos: AUTO-CI, single reference methods and gradients 
  Taras Petrenko         : pre 6.0 DFT Hessian and TD-DFT gradient,  ECA, NRVS 
  Petra Pikulova         : Analytic Raman intensities                    
  Peter Pinski           : DLPNO-MP2, DLPNO-MP2 Gradient                 
  Shashank Vittal Rao    : ES-AILFT, MagRelax                            
  Christoph Reimann      : Effective Core Potentials                     
  Marius Retegan         : Local ZFS, SOC                                
  Christoph Riplinger    : Optimizer, TS searches, QM/MM, DLPNO-CCSD(T), (RO)-DLPNO pert. Triples 
  Michael Roemelt        : Original ROCIS implementation, recursive CI coupling coefficients
  Masaaki Saitow         : Open-shell DLPNO-CCSD energy and density      
  Barbara Sandhoefer     : DKH picture change effects                    
  Yorick L. A. Schmerwitz: GMF and freeze-and-release deltaSCF, NEB S-IDPP initial path                    
  Kantharuban Sivalingam : CASSCF convergence/infrastructure, NEVPT2, NEVPT3, NEVPT4(SD), FIC-MRCI and CEPA variants
  Bernardo de Souza      : ESD, SOC TD-DFT                               
  Georgi L. Stoychev     : AutoAux, RI-MP2 NMR, DLPNO-MP2 response, X2C  
  Van Anh Tran           : RI-MP2 g-tensors                              
  Willem Van den Heuvel  : Paramagnetic NMR                              
  Zikuan Wang            : NOTCH, Electric field optimization            
  Frank Wennmohs         : Technical directorship and infrastructure     
  Hang Xu                : AUTO-CI-Response properties                   
                                                                         
[FACCTs GmbH]                                                            
  Markus Bursch, Nicolas Foglia, Miquel Garcia-Rates, Ingolf Harden, Hagen Neugebauer, Anastasios Papadopoulos, 
  Christoph Riplinger, Bernardo de Souza, Georgi L. Stoychev                                                    
                                                                 
  APM, various basis sets, CI-OPT, improved COSX, DLPNO-Multilevel,           
  DOCKER, DRACO, updates on ESD, Fragmentator, GOAT, IRC, LR-CPCM, L-BFGS, MBIS, meta-GGA TD-DFT gradient, ML-optimized integration grids, 
  MM, NACMEs, nearIR, NEB, NEB-TS, NL-DFT gradient (VV10), 2- and 3-layer-ONIOM, interface openCOSMO-RS, QMMM,   
  Crystal-QMMM, RESP, rigid body optimization, SF, symmetry and pop. for TD-DFT, various functionals, SOLVATOR                                   
                                                                         
[Other institutions]                                                     
  V. Asgeirsson          : NEB                                           
  Christoph Bannwarth    : sTDA-DFT, sTD-DFT, PBEh-3c, B97-3c, D3        
  Giovanni Bistoni       : ETS/NOCV, ADLD/ADEX, COVALED                  
  Martin Brehm           : Molecular dynamics                            
  Ronald Cardenas        : ETS/NOCV                                      
  Martina Colucci        : COVALED                                       
  Sebastian Ehlert       : rSCAN, r2SCAN, r2SCAN-3c, D4, dhf basis sets  
  Marvin Friede          : D4 for Fr, Ra, Ac-Lr                          
  Lars Goerigk           : TD-DFT with DH, B97 family of functionals     
  Stefan Grimme          : VdW corrections, initial TS optimization, DFT functionals, gCP, sTDA/sTD-DF 
  Waldemar Hujo          : DFT-NL                                        
  H. Jonsson             : NEB                                           
  Holger Kruse           : gCP                                           
  Marcel Mueller         : wB97X-3c, vDZP basis set                      
  Hagen Neugebauer       : wr2SCAN, Native XTB                           
  Gianluca Regni         : ADLD/ADEX                                     
  Tobias Risthaus        : pre 6.0 range-separated hybrid DFT and stability analysis
  Lukas Wittmann         : regularized MP2, r2SCAN double-hybrids, wr2SCAN        
                                                                         
We gratefully acknowledge several colleagues who have allowed us to      
interface, adapt or use parts of their codes:                            
  Ed Valeev, F. Pavosevic, A. Kumar             : LibInt (2-el integral package), F12 methods 
  Garnet Chan, S. Sharma, J. Yang, R. Olivares  : DMRG                   
  Ulf Ekstrom                                   : XCFun DFT Library      
  Mihaly Kallay                                 : mrcc  (arbitrary order and MRCC methods)
  Frank Weinhold                                : gennbo (NPA and NBO analysis)           
  Simon Mueller                                 : openCOSMO-RS                            
  Christopher J. Cramer and Donald G. Truhlar   : smd solvation model                     
  S Lehtola, MJT Oliveira, MAL Marques          : LibXC Library                           
  Liviu Ungur et al                             : ANISO software                          


 Your calculation uses the libint2 library for the computation of 2-el integrals
 For citations please refer to: http://libint.valeyev.net

 Your ORCA version has been built with support for libXC version: 7.0.0
 For citations please refer to: https://libxc.gitlab.io

 This ORCA versions uses:
   CBLAS   interface :  Fast vector & matrix operations
   LAPACKE interface :  Fast linear algebra routines
   SCALAPACK package :  Parallel linear algebra routines
   Shared memory     :  Shared parallel matrices
   BLAS/LAPACK       :  OpenBLAS 0.3.29  USE64BITINT DYNAMIC_ARCH NO_AFFINITY Zen SINGLE_THREADED
        Core in use  :  Zen
   Copyright (c) 2011-2014, The OpenBLAS Project


  ***********************************
  * Starting time: Wed Sep 10 13:38:45 2025
  * Host name:     wyk-Server
  * Process ID:    2311023
  * Working dir.:  /home/wyk/Documents/code/openQDC/MGMR/singlepointcalc/109/react
  ***********************************

Your calculation utilizes the atom-pairwise dispersion correction
with the Becke-Johnson damping scheme (D3BJ)


Warning: RI is on but no J-basis has been assigned. Assigning Def2/J (nothing to worry about!)
================================================================================

----- Orbital basis set information -----
Your calculation utilizes the basis: def2-SVP
   F. Weigend and R. Ahlrichs, Phys. Chem. Chem. Phys. 7, 3297 (2005).

----- AuxJ basis set information -----
Your calculation utilizes the auxiliary basis: def2/J
   H-Rn: F. Weigend, Phys. Chem. Chem. Phys. 8, 1057 (2006).
   Fr-Lr: K. Eichkorn, F. Weigend, O. Treutler, R. Ahlrichs; Theor. Chem. Acc. 97, 119 (1997).

================================================================================
                                        WARNINGS
                       Please study these warnings very carefully!
================================================================================


================================================================================
                                       INPUT FILE
================================================================================
NAME = orca.inp
|  1> ! B3LYP def2-SVP d3 EnGrad 
|  2> %pal nprocs 6 end 
|  3> *xyz 0 1 
|  4> C   -0.79414340793005 -0.15996797003188 1.01924314016194
|  5> O   -0.05106356179758 0.71907514745111 1.49626687051028
|  6> Mg   1.12234378344682 1.92086920857527 0.26782009613291
|  7> Br   0.80971727457778 4.27307461380686 0.60017854965068
|  8> C   1.88586353986233 0.39970994888703 -0.97369065173585
|  9> C   2.09912270195408 -0.90247254299725 -0.46859998489934
| 10> C   1.9211663104971 0.52854190064795 -2.37822112590056
| 11> C   2.31643454805346 -2.00730453382018 -1.30076009129654
| 12> H   2.08385473685015 -1.07961769821594 0.61436480376296
| 13> C   2.12781575576532 -0.5666432603171 -3.22742524050915
| 14> H   1.76282316020856 1.51056376073415 -2.84021725938802
| 15> C   2.32294026921719 -1.84230279219123 -2.68982851539364
| 16> H   2.48061615101582 -2.99903965095394 -0.86715006850691
| 17> H   2.13439795550827 -0.42519623701596 -4.31287110804426
| 18> H   2.48653476745084 -2.70055876583814 -3.34786443485441
| 19> C   -1.31358766813677 0.02644871824466 -0.35748390644049
| 20> C   -1.24830936564004 -1.01332333691505 -1.30116263670991
| 21> C   -1.69393471861758 1.31979252632208 -0.76705189506746
| 22> C   -1.53853880357392 -0.75407910018212 -2.63957439289361
| 23> H   -0.89303676666563 -1.99934348491806 -1.00044959685232
| 24> C   -2.0105667431238 1.56389087173329 -2.10273134323264
| 25> H   -1.74670292293494 2.13101704563123 -0.03522712400909
| 26> C   -1.92388380414898 0.52897615813879 -3.04024013523912
| 27> H   -1.43745519816946 -1.55243627132888 -3.37754669935138
| 28> H   -2.31107913798288 2.56693938476673 -2.41323881726253
| 29> H   -2.14593777006754 0.72709875627794 -4.09161620941724
| 30> C   -1.10056020704697 -1.37196905976889 1.80113033197207
| 31> C   -2.20690338667713 -2.18788317890129 1.49760590401974
| 32> C   -0.27421164842088 -1.7006821158406 2.89352656688639
| 33> C   -2.47212849845421 -3.32051737426488 2.26715413876374
| 34> H   -2.86797709343345 -1.92117021540373 0.67202006638079
| 35> C   -0.53636560855636 -2.83810613699772 3.65137627703002
| 36> H   0.5741769902848 -1.05368245969316 3.12193149777419
| 37> C   -1.63478476487362 -3.64958798750848 3.33786857963538
| 38> H   -3.33587089721757 -3.94707585575558 2.03400752423256
| 39> H   0.11410150244968 -3.09789762734269 4.48956049356088
| 40> H   -1.83993448367279 -4.54186838501434 3.93460735652994
| 41> *
| 42> 
| 43>                          ****END OF INPUT****
================================================================================

                     *******************************
                     * Energy+Gradient Calculation *
                     *******************************

---------------------------------
CARTESIAN COORDINATES (ANGSTROEM)
---------------------------------
  C     -0.794143   -0.159968    1.019243
  O     -0.051064    0.719075    1.496267
  Mg     1.122344    1.920869    0.267820
  Br     0.809717    4.273075    0.600179
  C      1.885864    0.399710   -0.973691
  C      2.099123   -0.902473   -0.468600
  C      1.921166    0.528542   -2.378221
  C      2.316435   -2.007305   -1.300760
  H      2.083855   -1.079618    0.614365
  C      2.127816   -0.566643   -3.227425
  H      1.762823    1.510564   -2.840217
  C      2.322940   -1.842303   -2.689829
  H      2.480616   -2.999040   -0.867150
  H      2.134398   -0.425196   -4.312871
  H      2.486535   -2.700559   -3.347864
  C     -1.313588    0.026449   -0.357484
  C     -1.248309   -1.013323   -1.301163
  C     -1.693935    1.319793   -0.767052
  C     -1.538539   -0.754079   -2.639574
  H     -0.893037   -1.999343   -1.000450
  C     -2.010567    1.563891   -2.102731
  H     -1.746703    2.131017   -0.035227
  C     -1.923884    0.528976   -3.040240
  H     -1.437455   -1.552436   -3.377547
  H     -2.311079    2.566939   -2.413239
  H     -2.145938    0.727099   -4.091616
  C     -1.100560   -1.371969    1.801130
  C     -2.206903   -2.187883    1.497606
  C     -0.274212   -1.700682    2.893527
  C     -2.472128   -3.320517    2.267154
  H     -2.867977   -1.921170    0.672020
  C     -0.536366   -2.838106    3.651376
  H      0.574177   -1.053682    3.121931
  C     -1.634785   -3.649588    3.337869
  H     -3.335871   -3.947076    2.034008
  H      0.114102   -3.097898    4.489560
  H     -1.839934   -4.541868    3.934607

----------------------------
CARTESIAN COORDINATES (A.U.)
----------------------------
  NO LB      ZA    FRAG     MASS         X           Y           Z
   0 C     6.0000    0    12.011   -1.500714   -0.302296    1.926090
   1 O     8.0000    0    15.999   -0.096496    1.358855    2.827535
   2 Mg   12.0000    0    24.305    2.120922    3.629917    0.506107
   3 Br   35.0000    0    79.900    1.530144    8.074941    1.134173
   4 C     6.0000    0    12.011    3.563766    0.755342   -1.840009
   5 C     6.0000    0    12.011    3.966767   -1.705426   -0.885526
   6 C     6.0000    0    12.011    3.630478    0.998799   -4.494187
   7 C     6.0000    0    12.011    4.377427   -3.793256   -2.458080
   8 H     1.0000    0     1.008    3.937915   -2.040182    1.160981
   9 C     6.0000    0    12.011    4.020989   -1.070801   -6.098950
  10 H     1.0000    0     1.008    3.331253    2.854552   -5.367233
  11 C     6.0000    0    12.011    4.389721   -3.481448   -5.083039
  12 H     1.0000    0     1.008    4.687685   -5.667364   -1.638676
  13 H     1.0000    0     1.008    4.033428   -0.803504   -8.150145
  14 H     1.0000    0     1.008    4.698870   -5.103316   -6.326547
  15 C     6.0000    0    12.011   -2.482321    0.049981   -0.675547
  16 C     6.0000    0    12.011   -2.358963   -1.914904   -2.458841
  17 C     6.0000    0    12.011   -3.201073    2.494046   -1.449518
  18 C     6.0000    0    12.011   -2.907417   -1.425003   -4.988073
  19 H     1.0000    0     1.008   -1.687595   -3.778212   -1.890576
  20 C     6.0000    0    12.011   -3.799421    2.955325   -3.973586
  21 H     1.0000    0     1.008   -3.300790    4.027039   -0.066570
  22 C     6.0000    0    12.011   -3.635614    0.999620   -5.745221
  23 H     1.0000    0     1.008   -2.716397   -2.933679   -6.382638
  24 H     1.0000    0     1.008   -4.367307    4.850812   -4.560360
  25 H     1.0000    0     1.008   -4.055235    1.374018   -7.732034
  26 C     6.0000    0    12.011   -2.079757   -2.592646    3.403643
  27 C     6.0000    0    12.011   -4.170443   -4.134500    2.830065
  28 C     6.0000    0    12.011   -0.518185   -3.213823    5.467973
  29 C     6.0000    0    12.011   -4.671646   -6.274868    4.284300
  30 H     1.0000    0     1.008   -5.419691   -3.630486    1.269934
  31 C     6.0000    0    12.011   -1.013584   -5.363243    6.900101
  32 H     1.0000    0     1.008    1.085037   -1.991171    5.899596
  33 C     6.0000    0    12.011   -3.089295   -6.896722    6.307657
  34 H     1.0000    0     1.008   -6.303882   -7.458892    3.843717
  35 H     1.0000    0     1.008    0.215621   -5.854178    8.484040
  36 H     1.0000    0     1.008   -3.476972   -8.582887    7.435330

--------------------------------
INTERNAL COORDINATES (ANGSTROEM)
--------------------------------
 C      0   0   0     0.000000000000     0.00000000     0.00000000
 O      1   0   0     1.245967936762     0.00000000     0.00000000
 Mg     2   1   0     2.080931339738   121.18034334     0.00000000
 Br     3   2   1     2.396052533663   114.29904706   125.68448899
 C      3   2   1     2.106712331773    97.77312545   314.00636964
 C      5   3   2     1.412896066281   120.63095333   328.52333025
 C      5   3   2     1.410868459590   121.99191477   133.91768857
 C      6   5   3     1.400131639911   122.56226399   165.48077977
 H      6   5   3     1.097463553043   119.96219254   346.37183162
 C      7   5   3     1.401171709069   122.38881527   195.18025802
 H      7   5   3     1.096758822298   119.83434304    13.90072215
 C     10   7   5     1.397995370474   120.04934500   359.30284518
 H      8   6   5     1.094765633901   120.17877998   179.81064585
 H     10   7   5     1.094643008977   120.05709313   179.15930867
 H     12  10   7     1.093790540942   120.36622415   180.11216872
 C      1   2   3     1.483223139644   118.39559907   332.78075142
 C     16   1   2     1.405673052111   120.92411305   132.18943315
 C     16   1   2     1.408952810427   118.66769612   321.43042154
 C     17  16   1     1.393838846500   119.82757399   190.40126730
 H     17  16   1     1.090358970335   119.92695509     5.41995299
 C     18  16   1     1.394230766203   120.03307866   171.19187492
 H     18  16   1     1.093817717744   119.95543541   350.81108556
 C     19  17  16     1.398304188102   120.21114452   358.52419536
 H     19  17  16     1.091876912981   119.58586522   176.90265092
 H     21  18  16     1.092167070732   119.71219683   179.59981094
 H     23  19  17     1.092681187276   119.87319465   179.73556292
 C      1   2   3     1.474511945364   120.05465534   150.67667292
 C     27   1   2     1.407777737882   121.69360447   161.15923453
 C     27   1   2     1.408628321322   118.75917395   342.35696221
 C     28  27   1     1.394779217662   120.07469306   180.56830115
 H     28  27   1     1.090754888127   119.85253130   359.31994592
 C     29  27   1     1.391687567626   120.16694196   180.01502268
 H     29  27   1     1.091118989750   118.69157427   359.38061567
 C     30  28  27     1.398521151273   119.97572969   359.71368188
 H     30  28  27     1.092237980486   119.89646754   179.51248125
 H     32  29  27     1.092314909629   120.00468641   179.17007138
 H     34  30  28     1.092862243261   119.85223151   180.48236519

---------------------------
INTERNAL COORDINATES (A.U.)
---------------------------
 C      0   0   0     0.000000000000     0.00000000     0.00000000
 O      1   0   0     2.354538172126     0.00000000     0.00000000
 Mg     2   1   0     3.932390335599   121.18034334     0.00000000
 Br     3   2   1     4.527883091111   114.29904706   125.68448899
 C      3   2   1     3.981109350006    97.77312545   314.00636964
 C      5   3   2     2.669986620965   120.63095333   328.52333025
 C      5   3   2     2.666154999613   121.99191477   133.91768857
 C      6   5   3     2.645865350870   122.56226399   165.48077977
 H      6   5   3     2.073905557212   119.96219254   346.37183162
 C      7   5   3     2.647830796739   122.38881527   195.18025802
 H      7   5   3     2.072573809105   119.83434304    13.90072215
 C     10   7   5     2.641828386685   120.04934500   359.30284518
 H      8   6   5     2.068807228902   120.17877998   179.81064585
 H     10   7   5     2.068575501379   120.05709313   179.15930867
 H     12  10   7     2.066964570253   120.36622415   180.11216872
 C      1   2   3     2.802885529423   118.39559907   332.78075142
 C     16   1   2     2.656337102323   120.92411305   132.18943315
 C     16   1   2     2.662534947325   118.66769612   321.43042154
 C     17  16   1     2.633973694706   119.82757399   190.40126730
 H     17  16   1     2.060479841598   119.92695509     5.41995299
 C     18  16   1     2.634714315610   120.03307866   171.19187492
 H     18  16   1     2.067015926966   119.95543541   350.81108556
 C     19  17  16     2.642411967427   120.21114452   358.52419536
 H     19  17  16     2.063348337486   119.58586522   176.90265092
 H     21  18  16     2.063896656170   119.71219683   179.59981094
 H     23  19  17     2.064868195640   119.87319465   179.73556292
 C      1   2   3     2.786423757934   120.05465534   150.67667292
 C     27   1   2     2.660314382029   121.69360447   161.15923453
 C     27   1   2     2.661921751784   118.75917395   342.35696221
 C     28  27   1     2.635750738666   120.07469306   180.56830115
 H     28  27   1     2.061228017795   119.85253130   359.31994592
 C     29  27   1     2.629908366796   120.16694196   180.01502268
 H     29  27   1     2.061916070149   118.69157427   359.38061567
 C     30  28  27     2.642821968402   119.97572969   359.71368188
 H     30  28  27     2.064030656186   119.89646754   179.51248125
 H     32  29  27     2.064176031198   120.00468641   179.17007138
 H     34  30  28     2.065210341867   119.85223151   180.48236519

---------------------
BASIS SET INFORMATION
---------------------
There are 5 groups of distinct atoms

 Group   1 Type C   : 7s4p1d contracted to 3s2p1d pattern {511/31/1}
 Group   2 Type O   : 7s4p1d contracted to 3s2p1d pattern {511/31/1}
 Group   3 Type Mg  : 10s7p1d contracted to 4s3p1d pattern {5311/511/1}
 Group   4 Type Br  : 14s10p6d contracted to 5s4p3d pattern {63311/5311/411}
 Group   5 Type H   : 4s1p contracted to 2s1p pattern {31/1}

Atom   0C    basis set group =>   1
Atom   1O    basis set group =>   2
Atom   2Mg   basis set group =>   3
Atom   3Br   basis set group =>   4
Atom   4C    basis set group =>   1
Atom   5C    basis set group =>   1
Atom   6C    basis set group =>   1
Atom   7C    basis set group =>   1
Atom   8H    basis set group =>   5
Atom   9C    basis set group =>   1
Atom  10H    basis set group =>   5
Atom  11C    basis set group =>   1
Atom  12H    basis set group =>   5
Atom  13H    basis set group =>   5
Atom  14H    basis set group =>   5
Atom  15C    basis set group =>   1
Atom  16C    basis set group =>   1
Atom  17C    basis set group =>   1
Atom  18C    basis set group =>   1
Atom  19H    basis set group =>   5
Atom  20C    basis set group =>   1
Atom  21H    basis set group =>   5
Atom  22C    basis set group =>   1
Atom  23H    basis set group =>   5
Atom  24H    basis set group =>   5
Atom  25H    basis set group =>   5
Atom  26C    basis set group =>   1
Atom  27C    basis set group =>   1
Atom  28C    basis set group =>   1
Atom  29C    basis set group =>   1
Atom  30H    basis set group =>   5
Atom  31C    basis set group =>   1
Atom  32H    basis set group =>   5
Atom  33C    basis set group =>   1
Atom  34H    basis set group =>   5
Atom  35H    basis set group =>   5
Atom  36H    basis set group =>   5
---------------------------------
AUXILIARY/J BASIS SET INFORMATION
---------------------------------
There are 5 groups of distinct atoms

 Group   1 Type C   : 12s5p4d2f1g contracted to 6s4p3d1f1g pattern {711111/2111/211/2/1}
 Group   2 Type O   : 12s5p4d2f1g contracted to 6s4p3d1f1g pattern {711111/2111/211/2/1}
 Group   3 Type Mg  : 14s5p5d2f1g contracted to 8s4p4d1f1g pattern {71111111/2111/2111/2/1}
 Group   4 Type Br  : 19s5p5d3f1g contracted to 8s4p3d2f1g pattern {121111111/2111/311/21/1}
 Group   5 Type H   : 5s2p1d contracted to 3s1p1d pattern {311/2/1}

Atom   0C    basis set group =>   1
Atom   1O    basis set group =>   2
Atom   2Mg   basis set group =>   3
Atom   3Br   basis set group =>   4
Atom   4C    basis set group =>   1
Atom   5C    basis set group =>   1
Atom   6C    basis set group =>   1
Atom   7C    basis set group =>   1
Atom   8H    basis set group =>   5
Atom   9C    basis set group =>   1
Atom  10H    basis set group =>   5
Atom  11C    basis set group =>   1
Atom  12H    basis set group =>   5
Atom  13H    basis set group =>   5
Atom  14H    basis set group =>   5
Atom  15C    basis set group =>   1
Atom  16C    basis set group =>   1
Atom  17C    basis set group =>   1
Atom  18C    basis set group =>   1
Atom  19H    basis set group =>   5
Atom  20C    basis set group =>   1
Atom  21H    basis set group =>   5
Atom  22C    basis set group =>   1
Atom  23H    basis set group =>   5
Atom  24H    basis set group =>   5
Atom  25H    basis set group =>   5
Atom  26C    basis set group =>   1
Atom  27C    basis set group =>   1
Atom  28C    basis set group =>   1
Atom  29C    basis set group =>   1
Atom  30H    basis set group =>   5
Atom  31C    basis set group =>   1
Atom  32H    basis set group =>   5
Atom  33C    basis set group =>   1
Atom  34H    basis set group =>   5
Atom  35H    basis set group =>   5
Atom  36H    basis set group =>   5


           ************************************************************
           *        Program running with 6 parallel MPI-processes     *
           *              working on a common directory               *
           ************************************************************
------------------------------------------------------------------------------
                             ORCA STARTUP CALCULATIONS
                           -- RI-GTO INTEGRALS CHOSEN --
------------------------------------------------------------------------------
------------------------------------------------------------------------------
                   ___                                                        
                  /   \      - P O W E R E D   B Y -                         
                 /     \                                                     
                 |  |  |   _    _      __       _____    __    __             
                 |  |  |  | |  | |    /  \     |  _  \  |  |  /  |          
                  \  \/   | |  | |   /    \    | | | |  |  | /  /          
                 / \  \   | |__| |  /  /\  \   | |_| |  |  |/  /          
                |  |  |   |  __  | /  /__\  \  |    /   |      \           
                |  |  |   | |  | | |   __   |  |    \   |  |\   \          
                \     /   | |  | | |  |  |  |  | |\  \  |  | \   \       
                 \___/    |_|  |_| |__|  |__|  |_| \__\ |__|  \__/        
                                                                              
                      - O R C A' S   B I G   F R I E N D -                    
                                      &                                       
                       - I N T E G R A L  F E E D E R -                       
                                                                              
 v1 FN, 2020, v2 2021, v3 2022-2024                                           
------------------------------------------------------------------------------


----------------------
SHARK INTEGRAL PACKAGE
----------------------

Number of atoms                             ...     37
Number of basis functions                   ...    405
Number of shells                            ...    185
Maximum angular momentum                    ...      2
Integral batch strategy                     ... SHARK/LIBINT Hybrid
RI-J (if used) integral strategy            ... SPLIT-RIJ (Revised 2003 algorithm where possible)
Printlevel                                  ...      1
Contraction scheme used                     ... SEGMENTED contraction
Prescreening option                         ... SCHWARTZ
   Thresh                                   ... 2.500e-11
   Tcut                                     ... 2.500e-12
   Tpresel                                  ... 2.500e-12 
Coulomb Range Separation                    ... NOT USED
Exchange Range Separation                   ... NOT USED
Multipole approximations                    ... NOT USED
Finite Nucleus Model                        ... NOT USED
CABS basis                                  ... NOT available
Auxiliary Coulomb fitting basis             ... AVAILABLE
   # of basis functions in Aux-J            ...   1259
   # of shells in Aux-J                     ...    411
   Maximum angular momentum in Aux-J        ...      4
Auxiliary J/K fitting basis                 ... NOT available
Auxiliary Correlation fitting basis         ... NOT available
Auxiliary 'external' fitting basis          ... NOT available

Checking pre-screening integrals            ... done (  0.0 sec) Dimension = 185
   => SHARK Basis and OBASIS are compatible. Storing Pre-screening
Shell pair information
Shell pair cut-off parameter TPreSel        ...   2.5e-12
Total number of shell pairs                 ...     17205
Shell pairs after pre-screening             ...     13245
Total number of primitive shell pairs       ...     66434
Primitive shell pairs kept                  ...     31698
          la=0 lb=0:   3889 shell pairs
          la=1 lb=0:   4858 shell pairs
          la=1 lb=1:   1571 shell pairs
          la=2 lb=0:   1678 shell pairs
          la=2 lb=1:   1072 shell pairs
          la=2 lb=2:    177 shell pairs

Checking whether 4 symmetric matrices of dimension 405 fit in memory
:Max Core in MB      =   4096.00
 MB in use           =     19.98
 MB left             =   4076.02
 MB needed           =      2.51
 Data fit in memory  = YES
Calculating RI/J V-Matrix + Cholesky decomp.... done (  0.1 sec)
Calculating Nuclear repulsion               ... done (  0.0 sec) ENN=   2156.359581192462 Eh

Diagonalization of the overlap matrix:
Smallest eigenvalue                        ... 2.655e-04
Time for diagonalization                   ...    0.033 sec
Threshold for overlap eigenvalues          ... 1.000e-07
Number of eigenvalues below threshold      ... 0
Time for construction of square roots      ...    0.017 sec
Total time needed                          ...    0.053 sec

-------------------
DFT GRID GENERATION
-------------------

General Integration Accuracy     IntAcc      ... 4.388
Radial Grid Type                 RadialGrid  ... OptM3 with GC (2021)
Angular Grid (max. ang.)         AngularGrid ... 4 (Lebedev-302)
Angular grid pruning method      GridPruning ... 4 (adaptive)
Weight generation scheme         WeightScheme... mBecke (2022)
Basis function cutoff            BFCut       ... 1.0000e-11
Integration weight cutoff        WCut        ... 1.0000e-14
Partially contracted basis set               ... off
Rotationally invariant grid construction     ... off
Angular grids for H and He will be reduced by one unit
Core-polarized basis detected: some atoms will have their core
                               angular grid increased.

Total number of grid points                  ...   185064
Total number of batches                      ...     2912
Average number of points per batch           ...       63
Average number of grid points per atom       ...     5002

--------------------
COSX GRID GENERATION
--------------------

GRIDX 1
-------
General Integration Accuracy     IntAcc      ... 3.816
Radial Grid Type                 RadialGrid  ... OptM3 with GC (2021)
Angular Grid (max. ang.)         AngularGrid ... 1 (Lebedev-50)
Angular grid pruning method      GridPruning ... 4 (adaptive)
Weight generation scheme         WeightScheme... mBecke (2022)
Basis function cutoff            BFCut       ... 1.0000e-11
Integration weight cutoff        WCut        ... 1.0000e-14
Partially contracted basis set               ... on
Rotationally invariant grid construction     ... off
Angular grids for H and He will be reduced by one unit
Core-polarized basis detected: some atoms will have their core
                               angular grid increased.

Total number of grid points                  ...    29132
Total number of batches                      ...      244
Average number of points per batch           ...      119
Average number of grid points per atom       ...      787
UseSFitting                                  ... on

GRIDX 2
-------
General Integration Accuracy     IntAcc      ... 4.020
Radial Grid Type                 RadialGrid  ... OptM3 with GC (2021)
Angular Grid (max. ang.)         AngularGrid ... 2 (Lebedev-110)
Angular grid pruning method      GridPruning ... 4 (adaptive)
Weight generation scheme         WeightScheme... mBecke (2022)
Basis function cutoff            BFCut       ... 1.0000e-11
Integration weight cutoff        WCut        ... 1.0000e-14
Partially contracted basis set               ... on
Rotationally invariant grid construction     ... off
Angular grids for H and He will be reduced by one unit
Core-polarized basis detected: some atoms will have their core
                               angular grid increased.

Total number of grid points                  ...    53869
Total number of batches                      ...      442
Average number of points per batch           ...      121
Average number of grid points per atom       ...     1456
UseSFitting                                  ... on

GRIDX 3
-------
General Integration Accuracy     IntAcc      ... 4.338
Radial Grid Type                 RadialGrid  ... OptM3 with GC (2021)
Angular Grid (max. ang.)         AngularGrid ... 3 (Lebedev-194)
Angular grid pruning method      GridPruning ... 4 (adaptive)
Weight generation scheme         WeightScheme... mBecke (2022)
Basis function cutoff            BFCut       ... 1.0000e-11
Integration weight cutoff        WCut        ... 1.0000e-14
Partially contracted basis set               ... on
Rotationally invariant grid construction     ... off
Angular grids for H and He will be reduced by one unit
Core-polarized basis detected: some atoms will have their core
                               angular grid increased.

Total number of grid points                  ...   110827
Total number of batches                      ...      885
Average number of points per batch           ...      125
Average number of grid points per atom       ...     2995
UseSFitting                                  ... on
Grids setup in   4.1 sec
Initializing property integral containers    ... done (  0.0 sec)

SHARK setup successfully completed in   4.6 seconds

Maximum memory used throughout the entire STARTUP-calculation: 65.0 MB


           ************************************************************
           *        Program running with 6 parallel MPI-processes     *
           *              working on a common directory               *
           ************************************************************
-------------------------------------------------------------------------------
                                 ORCA GUESS
                   Start orbitals & Density for SCF / CASSCF
-------------------------------------------------------------------------------

------------
SCF SETTINGS
------------
Hamiltonian:
 Density Functional     Method          .... DFT(GTOs)
 Exchange Functional    Exchange        .... B88
   X-Alpha parameter    XAlpha          ....  0.666667
   Becke's b parameter  XBeta           ....  0.004200
 Correlation Functional Correlation     .... LYP
 LDA part of GGA corr.  LDAOpt          .... VWN-5
 Gradients option       PostSCFGGA      .... off
 Hybrid DFT is turned on
   Fraction HF Exchange ScalHFX         ....  0.200000
   Scaling of DF-GGA-X  ScalDFX         ....  0.720000
   Scaling of DF-GGA-C  ScalDFC         ....  0.810000
   Scaling of DF-LDA-C  ScalLDAC        ....  1.000000
   Perturbative correction              ....  0.000000
   NL short-range parameter             ....  4.800000
 RI-approximation to the Coulomb term is turned on
   Number of AuxJ basis functions       .... 1259
   RIJ-COSX (HFX calculated with COS-X)).... on


General Settings:
 Integral files         IntName         .... orca
 Hartree-Fock type      HFTyp           .... RHF
 Total Charge           Charge          ....    0
 Multiplicity           Mult            ....    1
 Number of Electrons    NEL             ....  184
 Basis Dimension        Dim             ....  405
 Nuclear Repulsion      ENuc            ....   2156.3595811925 Eh

Convergence Acceleration:
 AO-DIIS                CNVDIIS         .... on
   Start iteration      DIISMaxIt       ....    12
   Startup error        DIISStart       ....  0.200000
   # of expansion vecs  DIISMaxEq       ....     5
   Bias factor          DIISBfac        ....   1.050
   Max. coefficient     DIISMaxC        ....  10.000
 MO-DIIS                CNVKDIIS        .... off
 Trust-Rad. Augm. Hess. CNVTRAH         .... auto
   Auto Start mean grad. ratio tolernc. ....  1.125000
   Auto Start start iteration           ....    50
   Auto Start num. interpolation iter.  ....    10
   Max. Number of Micro iterations      ....    24
   Max. Number of Macro iterations      .... Maxiter - #DIIS iter
   Number of Davidson start vectors     ....     2
   Converg. threshold    (grad. norm)   ....   1.000e-05
   Grad. Scal. Fac. for Micro threshold ....   0.100
   Minimum threshold for Micro iter.    ....   1.000e-02
   NR start threshold (gradient norm)   ....   1.000e-04
   Initial trust radius                 ....   0.400
   Minimum AH scaling param. (alpha)    ....   1.000
   Maximum AH scaling param. (alpha)    .... 1000.000
   Quad. conv. algorithm                .... NR
   White noise on init. David. guess    .... on
   Maximum white noise                  ....   0.010
   Pseudo random numbers                .... off
   Inactive MOs                         .... canonical
   Orbital update algorithm             .... Taylor
   Preconditioner                       .... Diag
   Full preconditioner red. dimension   ....   250
 SOSCF                 CNVSOSCF           .... on
   Start iteration     SOSCFMaxIt         ....   150
   Startup grad/error  SOSCFStart         ....  0.003300
   Hessian update      SOSCFHessUp        .... L-BFGS
   Autom. constraints  SOSCFAutoConstrain .... off
 Level Shifting         CNVShift        .... on
   Level shift para.    LevelShift      ....    0.2500
   Turn off err/grad.   ShiftErr        ....    0.0010
 Zerner damping         CNVZerner       .... off
 Static damping         CNVDamp         .... on
   Fraction old density DampFac         ....    0.7000
   Max. Damping (<1)    DampMax         ....    0.9800
   Min. Damping (>=0)   DampMin         ....    0.0000
   Turn off err/grad.   DampErr         ....    0.1000

SCF Procedure:
 Maximum # iterations   MaxIter         ....   125
 SCF integral mode      SCFMode         .... Direct
   Integral package                     .... SHARK and LIBINT hybrid scheme
 Reset frequency        DirectResetFreq ....    20
 Integral Threshold     Thresh          ....  2.500e-11 Eh
 Primitive CutOff       TCut            ....  2.500e-12 Eh

Convergence Tolerance:
 Convergence Check Mode ConvCheckMode   .... Total+1el-Energy
 Convergence forced     ConvForced      .... 0
 Energy Change          TolE            ....  1.000e-08 Eh
 1-El. energy change                    ....  1.000e-05 Eh
 Orbital Gradient       TolG            ....  1.000e-05
 Orbital Rotation angle TolX            ....  1.000e-05
 DIIS Error             TolErr          ....  5.000e-07

------------------------------
INITIAL GUESS: MODEL POTENTIAL
------------------------------
Loading Hartree-Fock densities                     ... done
Calculating cut-offs                               ... done
Initializing the effective Hamiltonian             ... done
Setting up the integral package (SHARK)            ... done
Starting the Coulomb interaction                   ... done (   0.4 sec)
Making the grid                                    ... done (   0.6 sec)
Mapping shells                                     ... done
Starting the XC term evaluation                    ... done (   0.2 sec)
  promolecular density results
     # of electrons  =    183.989447200
     EX              =   -216.021317932
     EC              =     -6.779906853
     EX+EC           =   -222.801224786
Transforming the Hamiltonian                       ... done (   0.0 sec)
Diagonalizing the Hamiltonian                      ... done (   0.0 sec)
Back transforming the eigenvectors                 ... done (   0.0 sec)
Now organizing SCF variables                       ... done
                      ------------------
                      INITIAL GUESS DONE (   1.3 sec)
                      ------------------
             **** ENERGY FILE WAS UPDATED (orca.en.tmp) ****
Finished Guess after   1.6 sec
Maximum memory used throughout the entire GUESS-calculation: 25.7 MB


           ************************************************************
           *        Program running with 6 parallel MPI-processes     *
           *              working on a common directory               *
           ************************************************************

-------------------------------------------------------------------------------------------
                                      ORCA LEAN-SCF
                              memory conserving SCF solver
-------------------------------------------------------------------------------------------

----------------------------------------D-I-I-S--------------------------------------------
Iteration    Energy (Eh)           Delta-E    RMSDP     MaxDP     DIISErr   Damp  Time(sec)
-------------------------------------------------------------------------------------------
               ***  Starting incremental Fock matrix formation  ***
    1    -3580.5399679747729351     0.00e+00  5.90e-03  9.43e-02  2.26e-01  0.700   9.3
Warning: op=0 Small HOMO/LUMO gap (   0.074) - skipping pre-diagonalization
         Will do a full diagonalization
    2    -3580.7553422904916260    -2.15e-01  4.17e-03  7.75e-02  8.72e-02  0.700   5.0
                               ***Turning on AO-DIIS***
    3    -3580.8446052084332223    -8.93e-02  1.89e-03  2.23e-02  2.90e-02  0.700   4.9
    4    -3580.8968123396748524    -5.22e-02  3.49e-03  3.00e-02  1.73e-02  0.000   4.7
    5    -3581.0105228057641398    -1.14e-01  5.64e-04  1.61e-02  8.68e-03  0.000   4.7
                              *** Initializing SOSCF ***
---------------------------------------S-O-S-C-F--------------------------------------
Iteration    Energy (Eh)           Delta-E    RMSDP     MaxDP     MaxGrad    Time(sec)
--------------------------------------------------------------------------------------
    6    -3581.0113484827938919    -8.26e-04  2.08e-04  5.46e-03  2.75e-03     4.5
               *** Restarting incremental Fock matrix formation ***
    7    -3581.0113972600188390    -4.88e-05  1.76e-04  3.84e-03  6.04e-04     9.4
    8    -3581.0113800485210049     1.72e-05  8.89e-05  2.69e-03  1.22e-03     6.5
    9    -3581.0114159279032719    -3.59e-05  3.64e-05  1.07e-03  7.62e-05     6.1
   10    -3581.0114156105532857     3.17e-07  1.78e-05  2.72e-04  1.12e-04     5.6
   11    -3581.0114166223243046    -1.01e-06  1.12e-05  3.50e-04  3.48e-05     4.8
   12    -3581.0114166099951944     1.23e-08  6.35e-06  1.90e-04  3.46e-05     4.7
   13    -3581.0114166901280441    -8.01e-08  1.67e-06  3.50e-05  4.79e-06     4.2
   14    -3581.0114166906000719    -4.72e-10  9.15e-07  1.59e-05  6.54e-06     3.4
                 **** Energy Check signals convergence ****

               *****************************************************
               *                     SUCCESS                       *
               *           SCF CONVERGED AFTER  14 CYCLES          *
               *****************************************************

Recomputing exchange energy using gridx3       ... done (   12.154 sec)
Old exchange energy                            :    -43.496559467 Eh
New exchange energy                            :    -43.496774563 Eh
Exchange energy change after final integration :     -0.000215097 Eh
Total energy after final integration           :  -3581.011631795 Eh
             **** ENERGY FILE WAS UPDATED (orca.en.tmp) ****

----------------
TOTAL SCF ENERGY
----------------

Total Energy       :      -3581.01163179508330 Eh          -97444.28047 eV

Components:
Nuclear Repulsion  :       2156.35958119246197 Eh           58677.52731 eV
Electronic Energy  :      -5737.37099789098647 Eh         -156121.80193 eV
One Electron Energy:      -9247.22655168271376 Eh         -251629.82708 eV
Two Electron Energy:       3509.85555379172683 Eh           95508.02515 eV

Virial components:
Potential Energy   :      -7149.56355413834353 Eh         -194549.51501 eV
Kinetic Energy     :       3568.55192234326069 Eh           97105.23454 eV
Virial Ratio       :          2.00349153094111

DFT components:
N(Alpha)           :       91.999872057651 electrons
N(Beta)            :       91.999872057651 electrons
N(Total)           :      183.999744115303 electrons
E(X)               :     -172.879128281460 Eh       
E(C)               :       -7.971435598565 Eh       
E(XC)              :     -180.850563880026 Eh       

---------------
SCF CONVERGENCE
---------------

  Last Energy change         ...    4.7203e-10  Tolerance :   1.0000e-08
  Last MAX-Density change    ...    1.5850e-05  Tolerance :   1.0000e-07
  Last RMS-Density change    ...    9.1533e-07  Tolerance :   5.0000e-09
  Last DIIS Error            ...    2.7519e-03  Tolerance :   5.0000e-07
  Last Orbital Gradient      ...    6.5421e-06  Tolerance :   1.0000e-05
  Last Orbital Rotation      ...    1.0645e-05  Tolerance :   1.0000e-05


----------------
ORBITAL ENERGIES
----------------

  NO   OCC          E(Eh)            E(eV) 
   0   2.0000    -482.712215    -13135.2672 
   1   2.0000     -62.395261     -1697.8614 
   2   2.0000     -56.225899     -1529.9845 
   3   2.0000     -56.225411     -1529.9712 
   4   2.0000     -56.225376     -1529.9703 
   5   2.0000     -46.810438     -1273.7768 
   6   2.0000     -19.175068      -521.7801 
   7   2.0000     -10.318818      -280.7893 
   8   2.0000     -10.228914      -278.3429 
   9   2.0000     -10.228476      -278.3310 
  10   2.0000     -10.227565      -278.3062 
  11   2.0000     -10.225890      -278.2606 
  12   2.0000     -10.224811      -278.2312 
  13   2.0000     -10.222299      -278.1629 
  14   2.0000     -10.221244      -278.1342 
  15   2.0000     -10.220135      -278.1040 
  16   2.0000     -10.219691      -278.0919 
  17   2.0000     -10.217480      -278.0318 
  18   2.0000     -10.214826      -277.9596 
  19   2.0000     -10.214094      -277.9396 
  20   2.0000     -10.172254      -276.8011 
  21   2.0000     -10.171210      -276.7727 
  22   2.0000     -10.169937      -276.7381 
  23   2.0000     -10.167066      -276.6599 
  24   2.0000     -10.164977      -276.6031 
  25   2.0000     -10.135833      -275.8100 
  26   2.0000      -8.612612      -234.3611 
  27   2.0000      -6.439914      -175.2390 
  28   2.0000      -6.436561      -175.1477 
  29   2.0000      -6.436159      -175.1368 
  30   2.0000      -3.096672       -84.2647 
  31   2.0000      -2.555400       -69.5360 
  32   2.0000      -2.554337       -69.5070 
  33   2.0000      -2.554096       -69.5005 
  34   2.0000      -2.551382       -69.4266 
  35   2.0000      -2.551365       -69.4262 
  36   2.0000      -1.845516       -50.2190 
  37   2.0000      -1.843158       -50.1549 
  38   2.0000      -1.839625       -50.0587 
  39   2.0000      -1.074592       -29.2411 
  40   2.0000      -0.884944       -24.0806 
  41   2.0000      -0.875515       -23.8240 
  42   2.0000      -0.816779       -22.2257 
  43   2.0000      -0.799254       -21.7488 
  44   2.0000      -0.773890       -21.0586 
  45   2.0000      -0.768671       -20.9166 
  46   2.0000      -0.763586       -20.7782 
  47   2.0000      -0.712159       -19.3788 
  48   2.0000      -0.702876       -19.1262 
  49   2.0000      -0.689654       -18.7664 
  50   2.0000      -0.680131       -18.5073 
  51   2.0000      -0.640249       -17.4221 
  52   2.0000      -0.630401       -17.1541 
  53   2.0000      -0.621632       -16.9155 
  54   2.0000      -0.583378       -15.8745 
  55   2.0000      -0.570493       -15.5239 
  56   2.0000      -0.561792       -15.2871 
  57   2.0000      -0.556056       -15.1310 
  58   2.0000      -0.534772       -14.5519 
  59   2.0000      -0.503400       -13.6982 
  60   2.0000      -0.498453       -13.5636 
  61   2.0000      -0.490976       -13.3601 
  62   2.0000      -0.482797       -13.1376 
  63   2.0000      -0.476523       -12.9668 
  64   2.0000      -0.465725       -12.6730 
  65   2.0000      -0.458811       -12.4849 
  66   2.0000      -0.454605       -12.3704 
  67   2.0000      -0.448701       -12.2098 
  68   2.0000      -0.435636       -11.8543 
  69   2.0000      -0.423778       -11.5316 
  70   2.0000      -0.419870       -11.4252 
  71   2.0000      -0.401493       -10.9252 
  72   2.0000      -0.396137       -10.7794 
  73   2.0000      -0.392816       -10.6891 
  74   2.0000      -0.388924       -10.5831 
  75   2.0000      -0.385840       -10.4992 
  76   2.0000      -0.375536       -10.2189 
  77   2.0000      -0.370223       -10.0743 
  78   2.0000      -0.365779        -9.9533 
  79   2.0000      -0.342525        -9.3206 
  80   2.0000      -0.322991        -8.7890 
  81   2.0000      -0.316753        -8.6193 
  82   2.0000      -0.294112        -8.0032 
  83   2.0000      -0.289358        -7.8738 
  84   2.0000      -0.285791        -7.7768 
  85   2.0000      -0.282786        -7.6950 
  86   2.0000      -0.278326        -7.5736 
  87   2.0000      -0.241286        -6.5657 
  88   2.0000      -0.240349        -6.5402 
  89   2.0000      -0.233990        -6.3672 
  90   2.0000      -0.230986        -6.2854 
  91   2.0000      -0.223468        -6.0809 
  92   0.0000      -0.109426        -2.9776 
  93   0.0000      -0.046122        -1.2551 
  94   0.0000      -0.041427        -1.1273 
  95   0.0000      -0.033088        -0.9004 
  96   0.0000      -0.000815        -0.0222 
  97   0.0000       0.007770         0.2114 
  98   0.0000       0.013949         0.3796 
  99   0.0000       0.017286         0.4704 
 100   0.0000       0.045011         1.2248 
 101   0.0000       0.047285         1.2867 
 102   0.0000       0.058618         1.5951 
*Only the first 10 virtual orbitals were printed.

                    ********************************
                    * MULLIKEN POPULATION ANALYSIS *
                    ********************************

-----------------------
MULLIKEN ATOMIC CHARGES
-----------------------
   0 C :    0.259268
   1 O :   -0.329917
   2 Mg:    0.515548
   3 Br:   -0.360162
   4 C :   -0.211953
   5 C :   -0.035451
   6 C :   -0.024596
   7 C :    0.017615
   8 H :   -0.034496
   9 C :    0.021926
  10 H :   -0.020420
  11 C :   -0.002310
  12 H :   -0.036931
  13 H :   -0.034727
  14 H :   -0.030140
  15 C :   -0.040642
  16 C :    0.050142
  17 C :   -0.020327
  18 C :    0.034104
  19 H :    0.004185
  20 C :    0.034120
  21 H :    0.043544
  22 C :    0.038246
  23 H :   -0.002060
  24 H :    0.006810
  25 H :    0.000163
  26 C :    0.029389
  27 C :    0.001825
  28 C :    0.017233
  29 C :    0.019313
  30 H :    0.006369
  31 C :    0.027737
  32 H :    0.012402
  33 C :    0.042992
  34 H :   -0.002162
  35 H :    0.000151
  36 H :    0.003212
Sum of atomic charges:   -0.0000000

--------------------------------
MULLIKEN REDUCED ORBITAL CHARGES
--------------------------------
  0 C s       :     3.094618  s :     3.094618
      pz      :     0.910053  p :     2.555834
      px      :     0.792751
      py      :     0.853030
      dz2     :     0.018932  d :     0.090280
      dxz     :     0.016201
      dyz     :     0.019756
      dx2y2   :     0.020194
      dxy     :     0.015198

  1 O s       :     3.779247  s :     3.779247
      pz      :     1.701743  p :     4.536348
      px      :     1.387359
      py      :     1.447246
      dz2     :     0.002036  d :     0.014321
      dxz     :     0.002330
      dyz     :     0.003251
      dx2y2   :     0.003265
      dxy     :     0.003438

  2 Mgs       :     4.572252  s :     4.572252
      pz      :     2.174240  p :     6.620144
      px      :     2.199989
      py      :     2.245916
      dz2     :     0.036669  d :     0.292056
      dxz     :     0.023428
      dyz     :     0.082293
      dx2y2   :     0.074541
      dxy     :     0.075125

  3 Brs       :     7.906638  s :     7.906638
      pz      :     5.870886  p :    17.444125
      px      :     5.864011
      py      :     5.709228
      dz2     :     2.001402  d :    10.009400
      dxz     :     2.000069
      dyz     :     2.001959
      dx2y2   :     2.004021
      dxy     :     2.001949

  4 C s       :     3.098871  s :     3.098871
      pz      :     1.040342  p :     3.083553
      px      :     0.889011
      py      :     1.154200
      dz2     :     0.009598  d :     0.029528
      dxz     :     0.004477
      dyz     :     0.007038
      dx2y2   :     0.004558
      dxy     :     0.003858

  5 C s       :     3.217460  s :     3.217460
      pz      :     0.843073  p :     2.781340
      px      :     0.996582
      py      :     0.941684
      dz2     :     0.010768  d :     0.036652
      dxz     :     0.002233
      dyz     :     0.011878
      dx2y2   :     0.005789
      dxy     :     0.005983

  6 C s       :     3.225937  s :     3.225937
      pz      :     0.953629  p :     2.762231
      px      :     0.975397
      py      :     0.833205
      dz2     :     0.008914  d :     0.036428
      dxz     :     0.005435
      dyz     :     0.015074
      dx2y2   :     0.004083
      dxy     :     0.002920

  7 C s       :     3.162725  s :     3.162725
      pz      :     0.941493  p :     2.784701
      px      :     0.995243
      py      :     0.847965
      dz2     :     0.010029  d :     0.034958
      dxz     :     0.006102
      dyz     :     0.011495
      dx2y2   :     0.004377
      dxy     :     0.002956

  8 H s       :     1.012141  s :     1.012141
      pz      :     0.013495  p :     0.022355
      px      :     0.004995
      py      :     0.003864

  9 C s       :     3.161784  s :     3.161784
      pz      :     0.820737  p :     2.781399
      px      :     0.993900
      py      :     0.966762
      dz2     :     0.010095  d :     0.034891
      dxz     :     0.002442
      dyz     :     0.010263
      dx2y2   :     0.005758
      dxy     :     0.006333

 10 H s       :     0.998137  s :     0.998137
      pz      :     0.005294  p :     0.022282
      px      :     0.004904
      py      :     0.012085

 11 C s       :     3.165079  s :     3.165079
      pz      :     0.915458  p :     2.802391
      px      :     1.001416
      py      :     0.885517
      dz2     :     0.008787  d :     0.034840
      dxz     :     0.005154
      dyz     :     0.012712
      dx2y2   :     0.004325
      dxy     :     0.003862

 12 H s       :     1.014345  s :     1.014345
      pz      :     0.005075  p :     0.022587
      px      :     0.005058
      py      :     0.012453

 13 H s       :     1.012177  s :     1.012177
      pz      :     0.014265  p :     0.022550
      px      :     0.004705
      py      :     0.003580

 14 H s       :     1.007500  s :     1.007500
      pz      :     0.007373  p :     0.022640
      px      :     0.005062
      py      :     0.010206

 15 C s       :     3.052158  s :     3.052158
      pz      :     0.954175  p :     2.949309
      px      :     1.030091
      py      :     0.965044
      dz2     :     0.010439  d :     0.039176
      dxz     :     0.004817
      dyz     :     0.010583
      dx2y2   :     0.006493
      dxy     :     0.006843

 16 C s       :     3.198770  s :     3.198770
      pz      :     0.936392  p :     2.716360
      px      :     0.926158
      py      :     0.853810
      dz2     :     0.009425  d :     0.034728
      dxz     :     0.006354
      dyz     :     0.011260
      dx2y2   :     0.004055
      dxy     :     0.003635

 17 C s       :     3.235735  s :     3.235735
      pz      :     0.881722  p :     2.750287
      px      :     0.972230
      py      :     0.896335
      dz2     :     0.008382  d :     0.034305
      dxz     :     0.004869
      dyz     :     0.011988
      dx2y2   :     0.004737
      dxy     :     0.004328

 18 C s       :     3.159131  s :     3.159131
      pz      :     0.915789  p :     2.772177
      px      :     0.963228
      py      :     0.893160
      dz2     :     0.008654  d :     0.034589
      dxz     :     0.004833
      dyz     :     0.012164
      dx2y2   :     0.004743
      dxy     :     0.004196

 19 H s       :     0.972495  s :     0.972495
      pz      :     0.004204  p :     0.023320
      px      :     0.006074
      py      :     0.013042

 20 C s       :     3.170305  s :     3.170305
      pz      :     0.948503  p :     2.760952
      px      :     0.952349
      py      :     0.860100
      dz2     :     0.010173  d :     0.034622
      dxz     :     0.005864
      dyz     :     0.010822
      dx2y2   :     0.004222
      dxy     :     0.003541

 21 H s       :     0.932788  s :     0.932788
      pz      :     0.008671  p :     0.023668
      px      :     0.004690
      py      :     0.010308

 22 C s       :     3.168213  s :     3.168213
      pz      :     0.854739  p :     2.758659
      px      :     0.945654
      py      :     0.958267
      dz2     :     0.009265  d :     0.034882
      dxz     :     0.003372
      dyz     :     0.010505
      dx2y2   :     0.005716
      dxy     :     0.006023

 23 H s       :     0.979222  s :     0.979222
      pz      :     0.008739  p :     0.022838
      px      :     0.004528
      py      :     0.009571

 24 H s       :     0.970360  s :     0.970360
      pz      :     0.004207  p :     0.022830
      px      :     0.005207
      py      :     0.013416

 25 H s       :     0.977195  s :     0.977195
      pz      :     0.014228  p :     0.022641
      px      :     0.004710
      py      :     0.003703

 26 C s       :     3.073845  s :     3.073845
      pz      :     0.963088  p :     2.858203
      px      :     0.947703
      py      :     0.947412
      dz2     :     0.006753  d :     0.038563
      dxz     :     0.007454
      dyz     :     0.008596
      dx2y2   :     0.008459
      dxy     :     0.007301

 27 C s       :     3.231004  s :     3.231004
      pz      :     0.870971  p :     2.732541
      px      :     0.922956
      py      :     0.938614
      dz2     :     0.005499  d :     0.034630
      dxz     :     0.006785
      dyz     :     0.006543
      dx2y2   :     0.007984
      dxy     :     0.007818

 28 C s       :     3.243371  s :     3.243371
      pz      :     0.936814  p :     2.704999
      px      :     0.893403
      py      :     0.874782
      dz2     :     0.007968  d :     0.034397
      dxz     :     0.006311
      dyz     :     0.006897
      dx2y2   :     0.005630
      dxy     :     0.007591

 29 C s       :     3.165258  s :     3.165258
      pz      :     0.955882  p :     2.781056
      px      :     0.895828
      py      :     0.929346
      dz2     :     0.007319  d :     0.034373
      dxz     :     0.006283
      dyz     :     0.007298
      dx2y2   :     0.005971
      dxy     :     0.007503

 30 H s       :     0.970308  s :     0.970308
      pz      :     0.010878  p :     0.023323
      px      :     0.008093
      py      :     0.004351

 31 C s       :     3.167915  s :     3.167915
      pz      :     0.899835  p :     2.769898
      px      :     0.915289
      py      :     0.954774
      dz2     :     0.005598  d :     0.034450
      dxz     :     0.006829
      dyz     :     0.006675
      dx2y2   :     0.007615
      dxy     :     0.007732

 32 H s       :     0.964197  s :     0.964197
      pz      :     0.004121  p :     0.023401
      px      :     0.010789
      py      :     0.008491

 33 C s       :     3.167044  s :     3.167044
      pz      :     0.922074  p :     2.754979
      px      :     0.950234
      py      :     0.882671
      dz2     :     0.006258  d :     0.034984
      dxz     :     0.007163
      dyz     :     0.007159
      dx2y2   :     0.007635
      dxy     :     0.006769

 34 H s       :     0.979340  s :     0.979340
      pz      :     0.004253  p :     0.022822
      px      :     0.011034
      py      :     0.007535

 35 H s       :     0.977062  s :     0.977062
      pz      :     0.010676  p :     0.022787
      px      :     0.007855
      py      :     0.004256

 36 H s       :     0.974168  s :     0.974168
      pz      :     0.007187  p :     0.022620
      px      :     0.003985
      py      :     0.011447



                     *******************************
                     * LOEWDIN POPULATION ANALYSIS *
                     *******************************

----------------------
LOEWDIN ATOMIC CHARGES
----------------------
   0 C :    0.193286
   1 O :   -0.053304
   2 Mg:   -0.292157
   3 Br:    0.024611
   4 C :   -0.166928
   5 C :   -0.024181
   6 C :   -0.008341
   7 C :   -0.042513
   8 H :    0.018338
   9 C :   -0.036005
  10 H :    0.024555
  11 C :   -0.042781
  12 H :    0.017672
  13 H :    0.018737
  14 H :    0.019537
  15 C :   -0.040438
  16 C :    0.021854
  17 C :    0.025491
  18 C :   -0.004499
  19 H :    0.035682
  20 C :   -0.000677
  21 H :    0.065538
  22 C :    0.005921
  23 H :    0.035096
  24 H :    0.038923
  25 H :    0.034512
  26 C :   -0.059068
  27 C :    0.010295
  28 C :    0.026960
  29 C :   -0.020278
  30 H :    0.035352
  31 C :   -0.016419
  32 H :    0.040571
  33 C :    0.009799
  34 H :    0.034357
  35 H :    0.035400
  36 H :    0.035101

-------------------------------
LOEWDIN REDUCED ORBITAL CHARGES
-------------------------------
  0 C s       :     2.850164  s :     2.850164
      pz      :     0.991065  p :     2.750355
      px      :     0.816559
      py      :     0.942731
      dz2     :     0.044791  d :     0.206196
      dxz     :     0.037072
      dyz     :     0.045865
      dx2y2   :     0.042015
      dxy     :     0.036453

  1 O s       :     3.445535  s :     3.445535
      pz      :     1.693347  p :     4.581661
      px      :     1.408725
      py      :     1.479589
      dz2     :     0.003338  d :     0.026109
      dxz     :     0.004531
      dyz     :     0.005856
      dx2y2   :     0.004654
      dxy     :     0.007730

  2 Mgs       :     4.539715  s :     4.539715
      pz      :     2.265261  p :     6.983414
      px      :     2.268850
      py      :     2.449303
      dz2     :     0.090564  d :     0.769027
      dxz     :     0.077469
      dyz     :     0.216467
      dx2y2   :     0.187527
      dxy     :     0.197000

  3 Brs       :     7.700571  s :     7.700571
      pz      :     5.793706  p :    17.266703
      px      :     5.792209
      py      :     5.680787
      dz2     :     2.001472  d :    10.008115
      dxz     :     2.000041
      dyz     :     2.001124
      dx2y2   :     2.004274
      dxy     :     2.001204

  4 C s       :     2.925305  s :     2.925305
      pz      :     1.123742  p :     3.168378
      px      :     0.878219
      py      :     1.166417
      dz2     :     0.026092  d :     0.073245
      dxz     :     0.009199
      dyz     :     0.019299
      dx2y2   :     0.011188
      dxy     :     0.007467

  5 C s       :     2.857523  s :     2.857523
      pz      :     1.024432  p :     3.072103
      px      :     0.975743
      py      :     1.071929
      dz2     :     0.028438  d :     0.094554
      dxz     :     0.004295
      dyz     :     0.033031
      dx2y2   :     0.015814
      dxy     :     0.012977

  6 C s       :     2.857650  s :     2.857650
      pz      :     1.072170  p :     3.056662
      px      :     0.957903
      py      :     1.026589
      dz2     :     0.025864  d :     0.094028
      dxz     :     0.011529
      dyz     :     0.040711
      dx2y2   :     0.010130
      dxy     :     0.005793

  7 C s       :     2.866707  s :     2.866707
      pz      :     1.065221  p :     3.085016
      px      :     0.982298
      py      :     1.037497
      dz2     :     0.028469  d :     0.090791
      dxz     :     0.013328
      dyz     :     0.032230
      dx2y2   :     0.010841
      dxy     :     0.005923

  8 H s       :     0.916455  s :     0.916455
      pz      :     0.039192  p :     0.065206
      px      :     0.014643
      py      :     0.011371

  9 C s       :     2.866782  s :     2.866782
      pz      :     1.033138  p :     3.078678
      px      :     0.976016
      py      :     1.069524
      dz2     :     0.026715  d :     0.090545
      dxz     :     0.004515
      dyz     :     0.029514
      dx2y2   :     0.015778
      dxy     :     0.014024

 10 H s       :     0.910425  s :     0.910425
      pz      :     0.015456  p :     0.065020
      px      :     0.014554
      py      :     0.035011

 11 C s       :     2.864153  s :     2.864153
      pz      :     1.056432  p :     3.088427
      px      :     0.986603
      py      :     1.045392
      dz2     :     0.025218  d :     0.090201
      dxz     :     0.010980
      dyz     :     0.034893
      dx2y2   :     0.011177
      dxy     :     0.007932

 12 H s       :     0.915965  s :     0.915965
      pz      :     0.015657  p :     0.066363
      px      :     0.015020
      py      :     0.035686

 13 H s       :     0.914960  s :     0.914960
      pz      :     0.040442  p :     0.066303
      px      :     0.014150
      py      :     0.011711

 14 H s       :     0.914131  s :     0.914131
      pz      :     0.021811  p :     0.066332
      px      :     0.015158
      py      :     0.029363

 15 C s       :     2.849749  s :     2.849749
      pz      :     1.021203  p :     3.086673
      px      :     0.997183
      py      :     1.068287
      dz2     :     0.028521  d :     0.104017
      dxz     :     0.011800
      dyz     :     0.031071
      dx2y2   :     0.017616
      dxy     :     0.015008

 16 C s       :     2.861589  s :     2.861589
      pz      :     1.056916  p :     3.026465
      px      :     0.937226
      py      :     1.032323
      dz2     :     0.027259  d :     0.090093
      dxz     :     0.014027
      dyz     :     0.031334
      dx2y2   :     0.009663
      dxy     :     0.007810

 17 C s       :     2.853783  s :     2.853783
      pz      :     1.051505  p :     3.031299
      px      :     0.951794
      py      :     1.028000
      dz2     :     0.023532  d :     0.089427
      dxz     :     0.010759
      dyz     :     0.033405
      dx2y2   :     0.012012
      dxy     :     0.009720

 18 C s       :     2.861636  s :     2.861636
      pz      :     1.050519  p :     3.053255
      px      :     0.956838
      py      :     1.045899
      dz2     :     0.024428  d :     0.089608
      dxz     :     0.010725
      dyz     :     0.033357
      dx2y2   :     0.011905
      dxy     :     0.009193

 19 H s       :     0.894971  s :     0.894971
      pz      :     0.013513  p :     0.069347
      px      :     0.017362
      py      :     0.038472

 20 C s       :     2.860867  s :     2.860867
      pz      :     1.057650  p :     3.050087
      px      :     0.953459
      py      :     1.038977
      dz2     :     0.028555  d :     0.089723
      dxz     :     0.013409
      dyz     :     0.030565
      dx2y2   :     0.010063
      dxy     :     0.007131

 21 H s       :     0.863766  s :     0.863766
      pz      :     0.026203  p :     0.070696
      px      :     0.014056
      py      :     0.030437

 22 C s       :     2.865832  s :     2.865832
      pz      :     1.039608  p :     3.038702
      px      :     0.938758
      py      :     1.060336
      dz2     :     0.024454  d :     0.089545
      dxz     :     0.006667
      dyz     :     0.029499
      dx2y2   :     0.015301
      dxy     :     0.013625

 23 H s       :     0.898016  s :     0.898016
      pz      :     0.025313  p :     0.066888
      px      :     0.013548
      py      :     0.028026

 24 H s       :     0.893906  s :     0.893906
      pz      :     0.013214  p :     0.067171
      px      :     0.015619
      py      :     0.038338

 25 H s       :     0.898794  s :     0.898794
      pz      :     0.040493  p :     0.066695
      px      :     0.014210
      py      :     0.011992

 26 C s       :     2.854176  s :     2.854176
      pz      :     1.030853  p :     3.100824
      px      :     1.050835
      py      :     1.019136
      dz2     :     0.017315  d :     0.104068
      dxz     :     0.020955
      dyz     :     0.023598
      dx2y2   :     0.021795
      dxy     :     0.020405

 27 C s       :     2.864941  s :     2.864941
      pz      :     1.002426  p :     3.035250
      px      :     1.013346
      py      :     1.019478
      dz2     :     0.013400  d :     0.089514
      dxz     :     0.017139
      dyz     :     0.017491
      dx2y2   :     0.020015
      dxy     :     0.021468

 28 C s       :     2.863817  s :     2.863817
      pz      :     0.995779  p :     3.020144
      px      :     1.008727
      py      :     1.015638
      dz2     :     0.019484  d :     0.089079
      dxz     :     0.016678
      dyz     :     0.019460
      dx2y2   :     0.014139
      dxy     :     0.019318

 29 C s       :     2.861707  s :     2.861707
      pz      :     1.025889  p :     3.069149
      px      :     1.017599
      py      :     1.025661
      dz2     :     0.017926  d :     0.089422
      dxz     :     0.016961
      dyz     :     0.020299
      dx2y2   :     0.015119
      dxy     :     0.019116

 30 H s       :     0.894755  s :     0.894755
      pz      :     0.031747  p :     0.069893
      px      :     0.024195
      py      :     0.013950

 31 C s       :     2.862153  s :     2.862153
      pz      :     1.011333  p :     3.064775
      px      :     1.019838
      py      :     1.033604
      dz2     :     0.013663  d :     0.089491
      dxz     :     0.017139
      dyz     :     0.017912
      dx2y2   :     0.019223
      dxy     :     0.021554

 32 H s       :     0.889594  s :     0.889594
      pz      :     0.012877  p :     0.069835
      px      :     0.031885
      py      :     0.025073

 33 C s       :     2.867708  s :     2.867708
      pz      :     1.006118  p :     3.032880
      px      :     1.018486
      py      :     1.008277
      dz2     :     0.015117  d :     0.089614
      dxz     :     0.019661
      dyz     :     0.017966
      dx2y2   :     0.018800
      dxy     :     0.018069

 34 H s       :     0.898659  s :     0.898659
      pz      :     0.013321  p :     0.066984
      px      :     0.031646
      py      :     0.022017

 35 H s       :     0.897642  s :     0.897642
      pz      :     0.030610  p :     0.066958
      px      :     0.023078
      py      :     0.013270

 36 H s       :     0.898187  s :     0.898187
      pz      :     0.021217  p :     0.066712
      px      :     0.012639
      py      :     0.032856



                      *****************************
                      * MAYER POPULATION ANALYSIS *
                      *****************************

  NA   - Mulliken gross atomic population
  ZA   - Total nuclear charge
  QA   - Mulliken gross atomic charge
  VA   - Mayer's total valence
  BVA  - Mayer's bonded valence
  FA   - Mayer's free valence

  ATOM       NA         ZA         QA         VA         BVA        FA
  0 C      5.7407     6.0000     0.2593     3.8405     3.8405     0.0000
  1 O      8.3299     8.0000    -0.3299     2.2113     2.2113    -0.0000
  2 Mg    11.4845    12.0000     0.5155     2.4785     2.4785     0.0000
  3 Br    35.3602    35.0000    -0.3602     1.0993     1.0993    -0.0000
  4 C      6.2120     6.0000    -0.2120     3.5735     3.5735    -0.0000
  5 C      6.0355     6.0000    -0.0355     3.9374     3.9374    -0.0000
  6 C      6.0246     6.0000    -0.0246     3.9218     3.9218    -0.0000
  7 C      5.9824     6.0000     0.0176     3.8452     3.8452    -0.0000
  8 H      1.0345     1.0000    -0.0345     0.9719     0.9719     0.0000
  9 C      5.9781     6.0000     0.0219     3.8442     3.8442    -0.0000
 10 H      1.0204     1.0000    -0.0204     0.9714     0.9714    -0.0000
 11 C      6.0023     6.0000    -0.0023     3.8339     3.8339    -0.0000
 12 H      1.0369     1.0000    -0.0369     0.9738     0.9738    -0.0000
 13 H      1.0347     1.0000    -0.0347     0.9746     0.9746    -0.0000
 14 H      1.0301     1.0000    -0.0301     0.9748     0.9748    -0.0000
 15 C      6.0406     6.0000    -0.0406     3.7675     3.7675    -0.0000
 16 C      5.9499     6.0000     0.0501     3.8749     3.8749    -0.0000
 17 C      6.0203     6.0000    -0.0203     3.8528     3.8528    -0.0000
 18 C      5.9659     6.0000     0.0341     3.8727     3.8727    -0.0000
 19 H      0.9958     1.0000     0.0042     1.0045     1.0045    -0.0000
 20 C      5.9659     6.0000     0.0341     3.8369     3.8369    -0.0000
 21 H      0.9565     1.0000     0.0435     0.9947     0.9947    -0.0000
 22 C      5.9618     6.0000     0.0382     3.8310     3.8310    -0.0000
 23 H      1.0021     1.0000    -0.0021     0.9836     0.9836    -0.0000
 24 H      0.9932     1.0000     0.0068     0.9805     0.9805    -0.0000
 25 H      0.9998     1.0000     0.0002     0.9791     0.9791    -0.0000
 26 C      5.9706     6.0000     0.0294     3.7773     3.7773     0.0000
 27 C      5.9982     6.0000     0.0018     3.8364     3.8364     0.0000
 28 C      5.9828     6.0000     0.0172     3.8471     3.8471    -0.0000
 29 C      5.9807     6.0000     0.0193     3.8472     3.8472     0.0000
 30 H      0.9936     1.0000     0.0064     0.9971     0.9971     0.0000
 31 C      5.9723     6.0000     0.0277     3.8167     3.8167     0.0000
 32 H      0.9876     1.0000     0.0124     0.9945     0.9945     0.0000
 33 C      5.9570     6.0000     0.0430     3.8253     3.8253     0.0000
 34 H      1.0022     1.0000    -0.0022     0.9800     0.9800    -0.0000
 35 H      0.9998     1.0000     0.0002     0.9802     0.9802    -0.0000
 36 H      0.9968     1.0000     0.0032     0.9789     0.9789     0.0000

  Mayer bond orders larger than 0.100000
B(  0-C ,  1-O ) :   1.7131 B(  0-C , 15-C ) :   0.9857 B(  0-C , 26-C ) :   1.0379 
B(  1-O ,  2-Mg) :   0.3719 B(  2-Mg,  3-Br) :   1.0622 B(  2-Mg,  4-C ) :   0.7618 
B(  4-C ,  5-C ) :   1.3798 B(  4-C ,  6-C ) :   1.3772 B(  5-C ,  7-C ) :   1.4072 
B(  5-C ,  8-H ) :   0.9597 B(  6-C ,  9-C ) :   1.3974 B(  6-C , 10-H ) :   0.9708 
B(  7-C , 11-C ) :   1.3766 B(  7-C , 12-H ) :   0.9798 B(  9-C , 11-C ) :   1.3826 
B(  9-C , 13-H ) :   0.9809 B( 11-C , 14-H ) :   0.9826 B( 15-C , 16-C ) :   1.3512 
B( 15-C , 17-C ) :   1.3251 B( 16-C , 18-C ) :   1.3968 B( 16-C , 19-H ) :   0.9774 
B( 17-C , 20-C ) :   1.3748 B( 17-C , 21-H ) :   0.9709 B( 18-C , 22-C ) :   1.3746 
B( 18-C , 23-H ) :   0.9819 B( 20-C , 22-C ) :   1.3675 B( 20-C , 24-H ) :   0.9851 
B( 22-C , 25-H ) :   0.9867 B( 26-C , 27-C ) :   1.3437 B( 26-C , 28-C ) :   1.3345 
B( 27-C , 29-C ) :   1.3853 B( 27-C , 30-H ) :   0.9813 B( 28-C , 31-C ) :   1.3857 
B( 28-C , 32-H ) :   0.9890 B( 29-C , 33-C ) :   1.3799 B( 29-C , 34-H ) :   0.9837 
B( 31-C , 33-C ) :   1.3572 B( 31-C , 35-H ) :   0.9866 B( 33-C , 36-H ) :   0.9854 


-------
TIMINGS
-------

Total SCF time: 0 days 0 hours 1 min 33 sec 

Total time                  ....      93.626 sec
Sum of individual times     ....      90.557 sec  ( 96.7%)

SCF preparation             ....       0.338 sec  (  0.4%)
Fock matrix formation       ....      88.337 sec  ( 94.4%)
  Startup                   ....       0.021 sec  (  0.0% of F)
  Split-RI-J                ....      10.599 sec  ( 12.0% of F)
  Chain of spheres X        ....      70.847 sec  ( 80.2% of F)
  XC integration            ....       9.367 sec  ( 10.6% of F)
    XC Preparation          ....       0.000 sec  (  0.0% of XC)
    Basis function eval.    ....       2.595 sec  ( 27.7% of XC)
    Density eval.           ....       2.078 sec  ( 22.2% of XC)
    XC-Functional eval.     ....       0.277 sec  (  3.0% of XC)
    XC-Potential eval.      ....       2.058 sec  ( 22.0% of XC)
Diagonalization             ....       0.000 sec  (  0.0%)
Density matrix formation    ....       0.189 sec  (  0.2%)
Total Energy calculation    ....       0.100 sec  (  0.1%)
Population analysis         ....       0.072 sec  (  0.1%)
Orbital Transformation      ....       0.178 sec  (  0.2%)
Orbital Orthonormalization  ....       0.000 sec  (  0.0%)
DIIS solution               ....       0.742 sec  (  0.8%)
SOSCF solution              ....       0.601 sec  (  0.6%)
Finished LeanSCF after  93.7 sec

Maximum memory used throughout the entire LEANSCF-calculation: 47.8 MB


-------------------------------------------------------------------------------
                          DFT DISPERSION CORRECTION                            
                                                                               
                              DFTD3 V3.1  Rev 1                                
                          USING Becke-Johnson damping                          
-------------------------------------------------------------------------------
The B3LYP functional is recognized
Active option DFTDOPT                   ...         4   

molecular C6(AA) [au] = 22558.791744 


            DFT-D V3
 parameters
 s6 scaling factor         :     1.0000 
 a1 scaling factor         :     0.3981 
 s8 scaling factor         :     1.9889 
 a2 scaling factor         :     4.4211 
 ad hoc parameters k1-k3   :    16.0000     1.3333    -4.0000 

 Edisp/kcal,au: -61.373330772891  -0.097804617720 
 E6   /kcal   : -27.704685555 
 E8   /kcal   : -33.668645218 
 % E8         :  54.858755088 

-------------------------   ----------------
Dispersion correction           -0.097804618
-------------------------   ----------------


-------------------------   --------------------
FINAL SINGLE POINT ENERGY     -3581.109436412803
-------------------------   --------------------



           ************************************************************
           *        Program running with 6 parallel MPI-processes     *
           *              working on a common directory               *
           ************************************************************
------------------------------------------------------------------------------
                         ORCA SCF GRADIENT CALCULATION
------------------------------------------------------------------------------

Nuc. rep. gradient        (SHARK) ... done (  0.0 sec)
HCore & Overlap gradient  (SHARK) ... done (  0.5 sec)
Split-RIJ-J gradient      (SHARK) ... done (  1.8 sec)
done ( 18.8 sec)
XC gradient                       ... done (  3.7 sec)
Dispersion correction             ... done (  0.0 sec)

-------------------
DISPERSION GRADIENT
-------------------

   1   C   :   -0.000083121    0.000658557    0.000104957
   2   O   :   -0.000090440    0.000243221    0.000540146
   3   Mg  :    0.000097119    0.000688821    0.000885939
   4   Br  :    0.000519634    0.001564497    0.000474760
   5   C   :    0.001317323    0.000173879   -0.000168153
   6   C   :    0.001192963   -0.000026188   -0.000322124
   7   C   :    0.001055337    0.000071073   -0.000244244
   8   C   :    0.000795915   -0.000582839   -0.000135818
   9   H   :    0.000559254   -0.000198565    0.000078578
  10   C   :    0.000733019   -0.000092522   -0.000600899
  11   H   :    0.000293888    0.000211686   -0.000334374
  12   C   :    0.000577952   -0.000279156   -0.000252440
  13   H   :    0.000177709   -0.000307763    0.000064372
  14   H   :    0.000133414    0.000025966   -0.000331121
  15   H   :    0.000114651   -0.000241248   -0.000189646
  16   C   :   -0.000681797    0.000402183   -0.000144495
  17   C   :   -0.001152168   -0.000091284   -0.000416457
  18   C   :   -0.000428798    0.000034444   -0.000025698
  19   C   :   -0.000934329   -0.000184896   -0.000483820
  20   H   :   -0.000316419   -0.000402697   -0.000264861
  21   C   :   -0.000769732    0.000206480   -0.000380446
  22   H   :   -0.000389765    0.000180336    0.000001071
  23   C   :   -0.000652553    0.000101443   -0.000336074
  24   H   :   -0.000234686   -0.000242672   -0.000278398
  25   H   :   -0.000212264    0.000256546   -0.000160612
  26   H   :   -0.000148223    0.000058829   -0.000301499
  27   C   :   -0.000366296   -0.000262636    0.000709161
  28   C   :   -0.000381074   -0.000302296    0.000408785
  29   C   :   -0.000058972   -0.000097226    0.000521704
  30   C   :   -0.000335358   -0.000362736    0.000167916
  31   H   :   -0.000399556   -0.000197963    0.000045186
  32   C   :    0.000107250   -0.000223038    0.000405103
  33   H   :    0.000176869   -0.000003090    0.000371668
  34   C   :   -0.000083415   -0.000277744    0.000227354
  35   H   :   -0.000234938   -0.000187063   -0.000029227
  36   H   :    0.000156487   -0.000084565    0.000236429
  37   H   :   -0.000054881   -0.000229774    0.000157277

Difference to translation invariance:
           :   -0.0000000000   -0.0000000000    0.0000000000

Difference to rotation invariance:
           :    0.0000000000   -0.0000000000   -0.0000000000

Norm of the Dispersion gradient    ...    0.0046147174
RMS gradient                       ...    0.0004380096
MAX gradient                       ...    0.0015644973

------------------
CARTESIAN GRADIENT
------------------

   1   C   :   -0.000007181   -0.000039469    0.000159006
   2   O   :   -0.000418311   -0.000332897   -0.000203879
   3   Mg  :    0.000097497    0.000197588    0.000093622
   4   Br  :    0.000272704    0.000120432   -0.000419586
   5   C   :    0.000052740    0.000107005    0.000271122
   6   C   :   -0.000029765   -0.000021581   -0.000028032
   7   C   :    0.000102638    0.000058769   -0.000045962
   8   C   :   -0.000125723   -0.000043007    0.000085797
   9   H   :   -0.000045222    0.000042298    0.000013101
  10   C   :    0.000005635    0.000044842    0.000029307
  11   H   :    0.000002426    0.000033391    0.000033302
  12   C   :   -0.000013606   -0.000151636   -0.000042319
  13   H   :    0.000044320    0.000021803   -0.000010436
  14   H   :    0.000004952    0.000013992   -0.000030988
  15   H   :    0.000016121    0.000037924    0.000005978
  16   C   :   -0.000052400   -0.000104242   -0.000029357
  17   C   :   -0.000071265    0.000017326    0.000024279
  18   C   :   -0.000029108    0.000015383    0.000019474
  19   C   :   -0.000029275    0.000000565    0.000069110
  20   H   :    0.000070519   -0.000000825    0.000048564
  21   C   :   -0.000022466    0.000053723    0.000024539
  22   H   :    0.000019617    0.000016378    0.000072708
  23   C   :   -0.000110898    0.000003493    0.000058484
  24   H   :    0.000023566   -0.000042228   -0.000046047
  25   H   :   -0.000014104    0.000009690   -0.000018114
  26   H   :    0.000034583    0.000005247   -0.000020184
  27   C   :    0.000172361    0.000054744   -0.000077039
  28   C   :   -0.000081377    0.000034197   -0.000046071
  29   C   :    0.000058265    0.000020315    0.000018546
  30   C   :   -0.000097979   -0.000052019   -0.000064401
  31   H   :    0.000076414    0.000070947    0.000022122
  32   C   :    0.000043721   -0.000061966    0.000099340
  33   H   :    0.000055197   -0.000022928   -0.000027828
  34   C   :   -0.000041563   -0.000096115    0.000026628
  35   H   :    0.000032690    0.000022438    0.000005377
  36   H   :   -0.000023896   -0.000024633   -0.000006774
  37   H   :    0.000028172   -0.000008943   -0.000063387

Difference to translation invariance:
           :    0.0000000000    0.0000000015   -0.0000000000

Difference to rotation invariance:
           :   -0.0002735355   -0.0000759871   -0.0008431361

Norm of the Cartesian gradient     ...    0.0010169495
RMS gradient                       ...    0.0000965246
MAX gradient                       ...    0.0004195865

-------
TIMINGS
-------

Total SCF gradient time     ....       24.805 sec

Densities                   ....       0.004 sec  (  0.0%)
One electron gradient       ....       0.524 sec  (  2.1%)
RI-J Coulomb gradient       ....       1.797 sec  (  7.2%)
COSX gradient               ....      18.795 sec  ( 75.8%)
XC gradient                 ....       3.662 sec  ( 14.8%)

Maximum memory used throughout the entire SCFGRAD-calculation: 56.4 MB


           ************************************************************
           *        Program running with 6 parallel MPI-processes     *
           *              working on a common directory               *
           ************************************************************

------------------------------------------------------------------------------
                              ORCA PROPERTY CALCULATIONS
------------------------------------------------------------------------------

GBWName                                 ... orca.gbw
Number of atoms                         ...     37
Number of basis functions               ...    405
Max core memory                         ...   4096 MB

Electric properties:
Dipole moment                           ... YES
Quadrupole moment                       ...  NO
Static polarizability (Dipole/Dipole)   ...  NO
Static polarizability (Dipole/Quad.)    ...  NO
Static polarizability (Quad./Quad.)     ...  NO
Static polarizability (Velocity)        ...  NO
Static hyperpolarizability              ...  NO

Atomic electric properties:
Dipole moment                           ...  NO
Quadrupole moment                       ...  NO
Static polarizability                   ...  NO

Choice of electric origin               ... Center of mass
Position of electric origin             ...     0.068696     0.860376     0.070303

General magnetic properties:
Magnetizability                         ...  NO

EPR properties:
g-Tensor (aka g-matrix)                 ...  NO
Zero-Field splitting spin-orbit         ...  NO
Zero-field splitting spin-spin          ...  NO
Hyperfine couplings                     ...  NO (   0 nuclei)
Quadrupole couplings                    ...  NO (   0 nuclei)
Contact density                         ...  NO (   0 nuclei)

NMR properties:
Chemical shifts                         ...  NO (   0 nuclei)
Spin-rotation constants                 ...  NO (   0 nuclei)
Spin-spin couplings                     ...  NO (   0 nuclei,    0 pairs)

Choice of magnetic origin               ... GIAO
Position of magnetic origin             ...     0.000000     0.000000     0.000000

Properties with geometric perturbations:
SCF Hessian                             ...  NO
IR spectrum                             ...  NO
VCD spectrum                            ...  NO
X-ray spectroscopy properties:
SCF XES/XAS/RIXS spectra                ...  NO

SCF SOC stabilization energy            ...  NO
Diagonal Born-Oppenheimer correction    ...  NO

-------------
DIPOLE MOMENT
-------------

Method             : SCF
Type of density    : Electron Density
Multiplicity       :   1
Irrep              :   0
Energy             : -3581.0116317950833036 Eh
Basis              : AO
                                X                 Y                 Z
Electronic contribution:     10.703574285      56.606944672      12.931767347
Nuclear contribution   :    -12.619675639     -59.488727739     -12.751782714
                        -----------------------------------------
Total Dipole Moment    :     -1.916101354      -2.881783068       0.179984633
                        -----------------------------------------
Magnitude (a.u.)       :      3.465330073
Magnitude (Debye)      :      8.808169049



--------------------
Rotational spectrum 
--------------------
 
Rotational constants in cm-1:             0.008555             0.005402             0.004477 
Rotational constants in MHz :           256.470412           161.960671           134.207881 

Dipole components along the rotational axes: 
x,y,z [a.u.] :    -3.257385    -0.327397     1.136118 
x,y,z [Debye]:    -8.279615    -0.832177     2.887783 

 

Dipole moment calculation done in   0.0 sec 

Maximum memory used throughout the entire PROP-calculation: 26.3 MB

--------------------------------
SUGGESTED CITATIONS FOR THIS RUN
--------------------------------

Below you find a list of papers that are relevant to this ORCA run
We neither can nor want to force you to cite these papers, but we appreciate if you do
You receive ORCA, which is the product of decades of hard work by many enthusiastic individuals, for free
The only thing we kindly ask in return is that you cite our papers,
We deeply appreciate it, if you show your appreciation for ORCA by not just citing the generic ORCA reference.

Please note that relegating all ORCA citations to the supporting information does *not* help us.
SI sections are not indexed - citations you put there will not count into any citation statistics
But we need these citations in order to attract the funding resources that allow us to do what we are doing

Therefore, if you are a happy ORCA user, please consider citing a few of the papers listed below in the main body of your paper

In addition to the list printed below, the program has created the file orca.bibtex that contains the list in bibtex format
You can import this file easily into all common literature databanks and citation aid programs


List of essential papers. We consider these as the minimum necessary citations

  1. Neese, F.
     Software update: the ORCA program system, version 6.0
     WIRES Comput. Molec. Sci. 2025 15(1), e70019
     doi.org/10.1002/wcms.7019

List of papers to cite with high priority. The work reported in these papers was absolutely
necessary for this run to complete.
Our perspective: the developers of density functionals and basis sets usually get cited in chemistry papers
Good! But without the algorithms to do something with them, the functionals or basis sets would not do anything.
Hence, in our opinion, the algorithm design and method developments papers are equally worthy of getting cited

  1. Neese, F.
     An improvement of the resolution of the identity approximation for the formation of the Coulomb matrix
     J. Comp. Chem. 2003 24(14), 1740-1747
     doi.org/10.1002/jcc.10318
  2. Neese, F.; Wennmohs, F.; Hansen, A.; Becker, U.
     Efficient, approximate and parallel Hartree-Fock and hybrid DFT calculations. A 'chain-of-spheres' algorithm for the Hartree-Fock exchange
     Chem. Phys. 2009 356(1-3), 98-109
     doi.org/10.1016/j.chemphys.2008.10.036
  3. Grimme, S.; Antony, J.; Ehrlich, S.; Krieg, H.
     A consistent and accurate ab initio parametrization of density functional dispersion correction (DFT-D) for the 94 elements H-Pu
     J. Chem. Phys. 2010 132 , 154104
     doi.org/10.1063/1.3382344
  4. Grimme, S.; Ehrlich, S.; Goerigk, L.
     Effect of the damping function in dispersion corrected density functional theory
     J. Comput. Chem. 2011 32(7), 1456-1465
     doi.org/10.1002/jcc.21759
  5. Helmich-Paris, B.; de Souza, B.; Neese, F.; Izsák, R.
     An improved chain of spheres for exchange algorithm
     J. Chem. Phys. 2021 155(10), 104109
     doi.org/10.1063/5.0058766
  6. Neese, F.
     The SHARK Integral Generation and Digestion System
     J. Comp. Chem. 2022 44(3), 381
     doi.org/10.1002/jcc.26942

List of suggested additional citations. These are papers that are important in the 'surrounding' of 
of this run, or papers that preceded the highly important papers. If you like your results we are grateful for a citation.

  1. Izsak, R.; Neese, F.
     An overlap fitted chain of spheres exchange method
     J. Chem. Phys. 2011 135 , 144105
     doi.org/10.1063/1.3646921
  2. Izsak, R.; Hansen, A.; Neese, F.
     The resolution of identity and chain of spheres approximations for the LPNO-CCSD singles Fock term
     Molec. Phys. 2012 110 , 2413-2417
     doi.org/10.1080/00268976.2012.687466
  3. Neese, F.
     The ORCA program system
     WIRES Comput. Molec. Sci. 2012 2(1), 73-78
     doi.org/10.1002/wcms.81
  4. Izsak, R.; Neese, F.; Klopper, W.
     Robust fitting techniques in the chain of spheres approximation to the Fock exchange: The role of the complementary space
     J. Chem. Phys. 2013 139 , 
     doi.org/10.1063/1.4819264
  5. Neese, F.
     Software update: the ORCA program system, version 4.0
     WIRES Comput. Molec. Sci. 2018 8(1), 1-6
     doi.org/10.1002/wcms.1327
  6. Neese, F.; Wennmohs, F.; Becker, U.; Riplinger, C.
     The ORCA quantum chemistry program package
     J. Chem. Phys. 2020 152(22), 224108
     doi.org/10.1063/5.0004608
  7. Neese, F.
     Software update: The ORCA program system—Version 5.0
     WIRES Comput. Molec. Sci. 2022 12(1), e1606
     doi.org/10.1002/wcms.1606

List of optional additional citations

  1. Neese, F.
     Approximate second-order SCF convergence for spin unrestricted wavefunctions
     Chem. Phys. Lett. 2000 325(1-3), 93-98
     doi.org/10.1016/s0009-2614(00)00662-x

Timings for individual modules:

Sum of individual times          ...      126.757 sec (=   2.113 min)
Startup calculation              ...        5.051 sec (=   0.084 min)   4.0 %
SCF iterations                   ...       95.862 sec (=   1.598 min)  75.6 %
Property calculations            ...        0.504 sec (=   0.008 min)   0.4 %
SCF Gradient evaluation          ...       25.340 sec (=   0.422 min)  20.0 %
                             ****ORCA TERMINATED NORMALLY****
TOTAL RUN TIME: 0 days 0 hours 2 minutes 7 seconds 303 msec
