
                                 *****************
                                 * O   R   C   A *
                                 *****************

                                            #,                                       
                                            ###                                      
                                            ####                                     
                                            #####                                    
                                            ######                                   
                                           ########,                                 
                                     ,,################,,,,,                         
                               ,,#################################,,                 
                          ,,##########################################,,             
                       ,#########################################, ''#####,          
                    ,#############################################,,   '####,        
                  ,##################################################,,,,####,       
                ,###########''''           ''''###############################       
              ,#####''   ,,,,##########,,,,          '''####'''          '####       
            ,##' ,,,,###########################,,,                        '##       
           ' ,,###''''                  '''############,,,                           
         ,,##''                                '''############,,,,        ,,,,,,###''
      ,#''                                            '''#######################'''  
     '                                                          ''''####''''         
             ,#######,   #######,   ,#######,      ##                                
            ,#'     '#,  ##    ##  ,#'     '#,    #''#        ,####,    ,#,          
            ##       ##  ##   ,#'  ##            #'  '#       #'       ,# #          
            ##       ##  #######   ##           ,######,      #####,      #          
            '#,     ,#'  ##    ##  '#,     ,#' ,#      #,     #,   #      #          
             '#######'   ##     ##  '#######'  #'      '#     '####' #    #          



                #########################################################
                #                        -***-                          #
                #          Department of theory and spectroscopy        #
                #                                                       #
                #                      Frank Neese                      #
                #                                                       #
                #     Directorship, Architecture, Infrastructure        #
                #                    SHARK, DRIVERS                     #
                #        Core code/Algorithms in most modules           #
                #                                                       #
                #        Max Planck Institute fuer Kohlenforschung      #
                #                Kaiser Wilhelm Platz 1                 #
                #                 D-45470 Muelheim/Ruhr                 #
                #                      Germany                          #
                #                                                       #
                #                  All rights reserved                  #
                #                        -***-                          #
                #########################################################


                         Program Version 6.1.0  -  RELEASE   -
                                (GIT: $679e74b$)
                          ($2025-06-10 18:02:51 +0200$)


 With contributions from (in alphabetic order):
[Max-Planck-Institut fuer Kohlenforschung]                               
  Daniel Aravena         : Magnetic Suceptibility                        
  Michael Atanasov       : Ab Initio Ligand Field Theory (pilot matlab implementation)
  Alexander A. Auer      : GIAO ZORA, VPT2 properties, NMR spectrum      
  Ute Becker             : All parallelization in ORCA, NUMFREQ, NUMCALC 
  Giovanni Bistoni       : ED, misc. LED, open-shell LED, HFLD           
  Dmytro Bykov           : pre 5.0 version of the SCF Hessian            
  Marcos Casanova-Páez   : Triplet and SCS-CIS(D). UHF-(DLPNO)-IP/EA/STEOM-CCSD. UHF-CVS-IP/STEOM-CCSD   
  Vijay G. Chilkuri      : MRCI spin determinant printing, contributions to CSF-ICE 
  Pauline Colinet        : FMM embedding                                 
  Dipayan Datta          : RHF DLPNO-CCSD density                        
  Achintya Kumar Dutta   : EOM-CC, STEOM-CC                              
  Nicolas Foglia         : Exact transition moments, OPA infrastructure, MCD improvements    
  Dmitry Ganyushin       : Spin-Orbit,Spin-Spin,Magnetic field MRCI      
  Miquel Garcia-Rates    : C-PCM and meta-GGA Hessian, CCSD/C-PCM, Gaussian charge scheme 
  Tiago L. C. Gouveia    : GS-ROHF, GS-ROCIS                             
  Yang Guo               : DLPNO-NEVPT2, F12-NEVPT2, CIM, IAO-localization        
  Andreas Hansen         : Spin unrestricted coupled pair/coupled cluster methods 
  Ingolf Harden          : AUTO-CI MPn and infrastructure                
  Benjamin Helmich-Paris : MC-RPA, TRAH-(SCF,CASSCF), AVAS, COSX integrals, SCF dyn. polar., MC-PDFT, srDFT 
  Lee Huntington         : MR-EOM, pCC                                   
  Robert Izsak           : Overlap fitted RIJCOSX, COSX-SCS-MP3, EOM     
  Riya Kayal             : Wick's Theorem for AUTO-CI, AUTO-CI UHF-CCSDT 
  Emily Kempfer          : AUTO-CI RHF CISDT and CCSDT, approximate NEVPT4
  Christian Kollmar      : KDIIS, OOCD, Brueckner-CCSD(T), CCSD density, CASPT2, CASPT2-K, improved NEVPT2 
  Axel Koslowski         : Symmetry handling                             
  Simone Kossmann        : meta-GGA functionals, TD-DFT gradient, OOMP2, (MP2 Hessian; deprecated post 5.0) 
  Lucas Lang             : DCDCAS, Hyperfine gauge corrections, ICE-SOC+SSC
  Marvin Lechner         : AUTO-CI (C++ implementation), FIC-MRCC        
  Spencer Leger          : CASSCF response                               
  Dagmar Lenk            : GEPOL surface, SMD, ORCA-2-JSON               
  Dimitrios Liakos       : Extrapolation schemes; Compound Job, Property file
  Dimitrios Manganas     : Further ROCIS development; embedding schemes. LFT, Crystal Embedding 
  Dimitrios Pantazis     : SARC Basis sets                               
  Anastasios Papadopoulos: AUTO-CI, single reference methods and gradients 
  Taras Petrenko         : pre 6.0 DFT Hessian and TD-DFT gradient,  ECA, NRVS 
  Petra Pikulova         : Analytic Raman intensities                    
  Peter Pinski           : DLPNO-MP2, DLPNO-MP2 Gradient                 
  Shashank Vittal Rao    : ES-AILFT, MagRelax                            
  Christoph Reimann      : Effective Core Potentials                     
  Marius Retegan         : Local ZFS, SOC                                
  Christoph Riplinger    : Optimizer, TS searches, QM/MM, DLPNO-CCSD(T), (RO)-DLPNO pert. Triples 
  Michael Roemelt        : Original ROCIS implementation, recursive CI coupling coefficients
  Masaaki Saitow         : Open-shell DLPNO-CCSD energy and density      
  Barbara Sandhoefer     : DKH picture change effects                    
  Yorick L. A. Schmerwitz: GMF and freeze-and-release deltaSCF, NEB S-IDPP initial path                    
  Kantharuban Sivalingam : CASSCF convergence/infrastructure, NEVPT2, NEVPT3, NEVPT4(SD), FIC-MRCI and CEPA variants
  Bernardo de Souza      : ESD, SOC TD-DFT                               
  Georgi L. Stoychev     : AutoAux, RI-MP2 NMR, DLPNO-MP2 response, X2C  
  Van Anh Tran           : RI-MP2 g-tensors                              
  Willem Van den Heuvel  : Paramagnetic NMR                              
  Zikuan Wang            : NOTCH, Electric field optimization            
  Frank Wennmohs         : Technical directorship and infrastructure     
  Hang Xu                : AUTO-CI-Response properties                   
                                                                         
[FACCTs GmbH]                                                            
  Markus Bursch, Nicolas Foglia, Miquel Garcia-Rates, Ingolf Harden, Hagen Neugebauer, Anastasios Papadopoulos, 
  Christoph Riplinger, Bernardo de Souza, Georgi L. Stoychev                                                    
                                                                 
  APM, various basis sets, CI-OPT, improved COSX, DLPNO-Multilevel,           
  DOCKER, DRACO, updates on ESD, Fragmentator, GOAT, IRC, LR-CPCM, L-BFGS, MBIS, meta-GGA TD-DFT gradient, ML-optimized integration grids, 
  MM, NACMEs, nearIR, NEB, NEB-TS, NL-DFT gradient (VV10), 2- and 3-layer-ONIOM, interface openCOSMO-RS, QMMM,   
  Crystal-QMMM, RESP, rigid body optimization, SF, symmetry and pop. for TD-DFT, various functionals, SOLVATOR                                   
                                                                         
[Other institutions]                                                     
  V. Asgeirsson          : NEB                                           
  Christoph Bannwarth    : sTDA-DFT, sTD-DFT, PBEh-3c, B97-3c, D3        
  Giovanni Bistoni       : ETS/NOCV, ADLD/ADEX, COVALED                  
  Martin Brehm           : Molecular dynamics                            
  Ronald Cardenas        : ETS/NOCV                                      
  Martina Colucci        : COVALED                                       
  Sebastian Ehlert       : rSCAN, r2SCAN, r2SCAN-3c, D4, dhf basis sets  
  Marvin Friede          : D4 for Fr, Ra, Ac-Lr                          
  Lars Goerigk           : TD-DFT with DH, B97 family of functionals     
  Stefan Grimme          : VdW corrections, initial TS optimization, DFT functionals, gCP, sTDA/sTD-DF 
  Waldemar Hujo          : DFT-NL                                        
  H. Jonsson             : NEB                                           
  Holger Kruse           : gCP                                           
  Marcel Mueller         : wB97X-3c, vDZP basis set                      
  Hagen Neugebauer       : wr2SCAN, Native XTB                           
  Gianluca Regni         : ADLD/ADEX                                     
  Tobias Risthaus        : pre 6.0 range-separated hybrid DFT and stability analysis
  Lukas Wittmann         : regularized MP2, r2SCAN double-hybrids, wr2SCAN        
                                                                         
We gratefully acknowledge several colleagues who have allowed us to      
interface, adapt or use parts of their codes:                            
  Ed Valeev, F. Pavosevic, A. Kumar             : LibInt (2-el integral package), F12 methods 
  Garnet Chan, S. Sharma, J. Yang, R. Olivares  : DMRG                   
  Ulf Ekstrom                                   : XCFun DFT Library      
  Mihaly Kallay                                 : mrcc  (arbitrary order and MRCC methods)
  Frank Weinhold                                : gennbo (NPA and NBO analysis)           
  Simon Mueller                                 : openCOSMO-RS                            
  Christopher J. Cramer and Donald G. Truhlar   : smd solvation model                     
  S Lehtola, MJT Oliveira, MAL Marques          : LibXC Library                           
  Liviu Ungur et al                             : ANISO software                          


 Your calculation uses the libint2 library for the computation of 2-el integrals
 For citations please refer to: http://libint.valeyev.net

 Your ORCA version has been built with support for libXC version: 7.0.0
 For citations please refer to: https://libxc.gitlab.io

 This ORCA versions uses:
   CBLAS   interface :  Fast vector & matrix operations
   LAPACKE interface :  Fast linear algebra routines
   SCALAPACK package :  Parallel linear algebra routines
   Shared memory     :  Shared parallel matrices
   BLAS/LAPACK       :  OpenBLAS 0.3.29  USE64BITINT DYNAMIC_ARCH NO_AFFINITY Zen SINGLE_THREADED
        Core in use  :  Zen
   Copyright (c) 2011-2014, The OpenBLAS Project


  ***********************************
  * Starting time: Wed Sep 10 13:36:13 2025
  * Host name:     wyk-Server
  * Process ID:    2298321
  * Working dir.:  /home/wyk/Documents/code/openQDC/MGMR/singlepointcalc/73/sp
  ***********************************

Your calculation utilizes the atom-pairwise dispersion correction
with the Becke-Johnson damping scheme (D3BJ)


Warning: RI is on but no J-basis has been assigned. Assigning Def2/J (nothing to worry about!)
================================================================================

----- Orbital basis set information -----
Your calculation utilizes the basis: def2-SVP
   F. Weigend and R. Ahlrichs, Phys. Chem. Chem. Phys. 7, 3297 (2005).

----- AuxJ basis set information -----
Your calculation utilizes the auxiliary basis: def2/J
   H-Rn: F. Weigend, Phys. Chem. Chem. Phys. 8, 1057 (2006).
   Fr-Lr: K. Eichkorn, F. Weigend, O. Treutler, R. Ahlrichs; Theor. Chem. Acc. 97, 119 (1997).

================================================================================
                                        WARNINGS
                       Please study these warnings very carefully!
================================================================================


================================================================================
                                       INPUT FILE
================================================================================
NAME = orca.inp
|  1> ! B3LYP def2-SVP d3 EnGrad 
|  2> %pal nprocs 6 end 
|  3> *xyz 0 1 
|  4> C   -1.54624378037474 -1.48643446758673 0.80524107414228
|  5> C   -0.86137702554669 -0.99131051240151 -0.22922222458568
|  6> C   -0.49272452956958 0.44903341780232 -0.4398548386988
|  7> C   -0.62822037823434 1.37416410676962 0.68205650357618
|  8> C   2.00034075998268 -0.39221630810343 -0.5918925404019
|  9> C   1.10314661326604 0.7032423997865 -0.61650340760327
| 10> H   -0.55661760373914 -1.66954839241259 -1.03450587786226
| 11> H   -1.89144547728958 -0.85043899539831 1.62531064004159
| 12> H   -1.79405364649199 -2.55005115536729 0.86169625949847
| 13> H   2.97897013886657 -0.28658079191898 -0.11630211976143
| 14> H   1.66069107193357 -1.41378011305953 -0.77296639739216
| 15> H   1.17979096919955 1.49242969702195 -1.37992130707323
| 16> H   1.25401260151436 1.37191707474313 0.33456694812102
| 17> H   -0.85018752444825 2.42990183047779 0.51587858523768
| 18> H   -0.5624813607352 1.01403531882666 1.71057897591386
| 19> H   -0.99360082833324 0.80563689082038 -1.35416027315235
| 20> *
| 21> 
| 22>                          ****END OF INPUT****
================================================================================

                     *******************************
                     * Energy+Gradient Calculation *
                     *******************************

---------------------------------
CARTESIAN COORDINATES (ANGSTROEM)
---------------------------------
  C     -1.546244   -1.486434    0.805241
  C     -0.861377   -0.991311   -0.229222
  C     -0.492725    0.449033   -0.439855
  C     -0.628220    1.374164    0.682057
  C      2.000341   -0.392216   -0.591893
  C      1.103147    0.703242   -0.616503
  H     -0.556618   -1.669548   -1.034506
  H     -1.891445   -0.850439    1.625311
  H     -1.794054   -2.550051    0.861696
  H      2.978970   -0.286581   -0.116302
  H      1.660691   -1.413780   -0.772966
  H      1.179791    1.492430   -1.379921
  H      1.254013    1.371917    0.334567
  H     -0.850188    2.429902    0.515879
  H     -0.562481    1.014035    1.710579
  H     -0.993601    0.805637   -1.354160

----------------------------
CARTESIAN COORDINATES (A.U.)
----------------------------
  NO LB      ZA    FRAG     MASS         X           Y           Z
   0 C     6.0000    0    12.011   -2.921977   -2.808954    1.521685
   1 C     6.0000    0    12.011   -1.627767   -1.873305   -0.433167
   2 C     6.0000    0    12.011   -0.931114    0.848550   -0.831205
   3 C     6.0000    0    12.011   -1.187164    2.596794    1.288900
   4 C     6.0000    0    12.011    3.780096   -0.741181   -1.118515
   5 C     6.0000    0    12.011    2.084645    1.328936   -1.165023
   6 H     1.0000    0     1.008   -1.051855   -3.154989   -1.954933
   7 H     1.0000    0     1.008   -3.574314   -1.607097    3.071392
   8 H     1.0000    0     1.008   -3.390270   -4.818898    1.628370
   9 H     1.0000    0     1.008    5.629438   -0.541559   -0.219779
  10 H     1.0000    0     1.008    3.138251   -2.671657   -1.460695
  11 H     1.0000    0     1.008    2.229482    2.820283   -2.607673
  12 H     1.0000    0     1.008    2.369740    2.592548    0.632240
  13 H     1.0000    0     1.008   -1.606622    4.591849    0.974869
  14 H     1.0000    0     1.008   -1.062936    1.916249    3.232526
  15 H     1.0000    0     1.008   -1.877633    1.522433   -2.558992

--------------------------------
INTERNAL COORDINATES (ANGSTROEM)
--------------------------------
 C      0   0   0     0.000000000000     0.00000000     0.00000000
 C      1   0   0     1.335778619114     0.00000000     0.00000000
 C      2   1   0     1.501619591705   126.15976202     0.00000000
 C      3   2   1     1.460448895580   118.49455251    13.77140737
 C      3   2   1     2.635562767616    86.22461218   123.97456894
 C      5   3   2     1.416189539708    32.30938741   181.19596882
 H      2   1   3     1.096068742961   118.82707057   182.36847128
 H      1   2   3     1.093694904949   121.80021505   358.85324376
 H      1   2   3     1.093561784365   121.10963220   178.26842101
 H      5   3   2     1.093188259953   142.26641569   240.19669907
 H      5   3   2     1.091669482890    90.79960171    17.83330817
 H      6   5   3     1.100680624271   121.50384853   225.63045567
 H      6   5   3     1.172357108084   110.21658838   111.63719159
 H      4   3   2     1.091543245044   120.97022127   209.83945961
 H      4   3   2     1.091729288070   120.60894668    26.54095862
 H      3   2   1     1.101815561291   108.37522432   243.36280103

---------------------------
INTERNAL COORDINATES (A.U.)
---------------------------
 C      0   0   0     0.000000000000     0.00000000     0.00000000
 C      1   0   0     2.524255765673     0.00000000     0.00000000
 C      2   1   0     2.837649785654   126.15976202     0.00000000
 C      3   2   1     2.759848445233   118.49455251    13.77140737
 C      3   2   1     4.980491839555    86.22461218   123.97456894
 C      5   3   2     2.676210383772    32.30938741   181.19596882
 H      2   1   3     2.071269748148   118.82707057   182.36847128
 H      1   2   3     2.066783844419   121.80021505   358.85324376
 H      1   2   3     2.066532282972   121.10963220   178.26842101
 H      5   3   2     2.065826424129   142.26641569   240.19669907
 H      5   3   2     2.062956351422    90.79960171    17.83330817
 H      6   5   3     2.079984940785   121.50384853   225.63045567
 H      6   5   3     2.215433865435   110.21658838   111.63719159
 H      4   3   2     2.062717796466   120.97022127   209.83945961
 H      4   3   2     2.063069366834   120.60894668    26.54095862
 H      3   2   1     2.082129660933   108.37522432   243.36280103

---------------------
BASIS SET INFORMATION
---------------------
There are 2 groups of distinct atoms

 Group   1 Type C   : 7s4p1d contracted to 3s2p1d pattern {511/31/1}
 Group   2 Type H   : 4s1p contracted to 2s1p pattern {31/1}

Atom   0C    basis set group =>   1
Atom   1C    basis set group =>   1
Atom   2C    basis set group =>   1
Atom   3C    basis set group =>   1
Atom   4C    basis set group =>   1
Atom   5C    basis set group =>   1
Atom   6H    basis set group =>   2
Atom   7H    basis set group =>   2
Atom   8H    basis set group =>   2
Atom   9H    basis set group =>   2
Atom  10H    basis set group =>   2
Atom  11H    basis set group =>   2
Atom  12H    basis set group =>   2
Atom  13H    basis set group =>   2
Atom  14H    basis set group =>   2
Atom  15H    basis set group =>   2
---------------------------------
AUXILIARY/J BASIS SET INFORMATION
---------------------------------
There are 2 groups of distinct atoms

 Group   1 Type C   : 12s5p4d2f1g contracted to 6s4p3d1f1g pattern {711111/2111/211/2/1}
 Group   2 Type H   : 5s2p1d contracted to 3s1p1d pattern {311/2/1}

Atom   0C    basis set group =>   1
Atom   1C    basis set group =>   1
Atom   2C    basis set group =>   1
Atom   3C    basis set group =>   1
Atom   4C    basis set group =>   1
Atom   5C    basis set group =>   1
Atom   6H    basis set group =>   2
Atom   7H    basis set group =>   2
Atom   8H    basis set group =>   2
Atom   9H    basis set group =>   2
Atom  10H    basis set group =>   2
Atom  11H    basis set group =>   2
Atom  12H    basis set group =>   2
Atom  13H    basis set group =>   2
Atom  14H    basis set group =>   2
Atom  15H    basis set group =>   2


           ************************************************************
           *        Program running with 6 parallel MPI-processes     *
           *              working on a common directory               *
           ************************************************************
------------------------------------------------------------------------------
                             ORCA STARTUP CALCULATIONS
                           -- RI-GTO INTEGRALS CHOSEN --
------------------------------------------------------------------------------
------------------------------------------------------------------------------
                   ___                                                        
                  /   \      - P O W E R E D   B Y -                         
                 /     \                                                     
                 |  |  |   _    _      __       _____    __    __             
                 |  |  |  | |  | |    /  \     |  _  \  |  |  /  |          
                  \  \/   | |  | |   /    \    | | | |  |  | /  /          
                 / \  \   | |__| |  /  /\  \   | |_| |  |  |/  /          
                |  |  |   |  __  | /  /__\  \  |    /   |      \           
                |  |  |   | |  | | |   __   |  |    \   |  |\   \          
                \     /   | |  | | |  |  |  |  | |\  \  |  | \   \       
                 \___/    |_|  |_| |__|  |__|  |_| \__\ |__|  \__/        
                                                                              
                      - O R C A' S   B I G   F R I E N D -                    
                                      &                                       
                       - I N T E G R A L  F E E D E R -                       
                                                                              
 v1 FN, 2020, v2 2021, v3 2022-2024                                           
------------------------------------------------------------------------------


----------------------
SHARK INTEGRAL PACKAGE
----------------------

Number of atoms                             ...     16
Number of basis functions                   ...    134
Number of shells                            ...     66
Maximum angular momentum                    ...      2
Integral batch strategy                     ... SHARK/LIBINT Hybrid
RI-J (if used) integral strategy            ... SPLIT-RIJ (Revised 2003 algorithm where possible)
Printlevel                                  ...      1
Contraction scheme used                     ... SEGMENTED contraction
Prescreening option                         ... SCHWARTZ
   Thresh                                   ... 2.500e-11
   Tcut                                     ... 2.500e-12
   Tpresel                                  ... 2.500e-12 
Coulomb Range Separation                    ... NOT USED
Exchange Range Separation                   ... NOT USED
Multipole approximations                    ... NOT USED
Finite Nucleus Model                        ... NOT USED
CABS basis                                  ... NOT available
Auxiliary Coulomb fitting basis             ... AVAILABLE
   # of basis functions in Aux-J            ...    404
   # of shells in Aux-J                     ...    140
   Maximum angular momentum in Aux-J        ...      4
Auxiliary J/K fitting basis                 ... NOT available
Auxiliary Correlation fitting basis         ... NOT available
Auxiliary 'external' fitting basis          ... NOT available

Checking pre-screening integrals            ... done (  0.0 sec) Dimension = 66
   => SHARK Basis and OBASIS are compatible. Storing Pre-screening
Shell pair information
Shell pair cut-off parameter TPreSel        ...   2.5e-12
Total number of shell pairs                 ...      2211
Shell pairs after pre-screening             ...      2160
Total number of primitive shell pairs       ...      7611
Primitive shell pairs kept                  ...      5751
          la=0 lb=0:    726 shell pairs
          la=1 lb=0:    813 shell pairs
          la=1 lb=1:    245 shell pairs
          la=2 lb=0:    224 shell pairs
          la=2 lb=1:    131 shell pairs
          la=2 lb=2:     21 shell pairs

Checking whether 4 symmetric matrices of dimension 134 fit in memory
:Max Core in MB      =   4096.00
 MB in use           =      6.07
 MB left             =   4089.93
 MB needed           =      0.28
 Data fit in memory  = YES
Calculating RI/J V-Matrix + Cholesky decomp.... done (  0.0 sec)
Calculating Nuclear repulsion               ... done (  0.0 sec) ENN=    222.794783424954 Eh

Diagonalization of the overlap matrix:
Smallest eigenvalue                        ... 1.020e-03
Time for diagonalization                   ...    0.003 sec
Threshold for overlap eigenvalues          ... 1.000e-07
Number of eigenvalues below threshold      ... 0
Time for construction of square roots      ...    0.001 sec
Total time needed                          ...    0.005 sec

-------------------
DFT GRID GENERATION
-------------------

General Integration Accuracy     IntAcc      ... 4.388
Radial Grid Type                 RadialGrid  ... OptM3 with GC (2021)
Angular Grid (max. ang.)         AngularGrid ... 4 (Lebedev-302)
Angular grid pruning method      GridPruning ... 4 (adaptive)
Weight generation scheme         WeightScheme... mBecke (2022)
Basis function cutoff            BFCut       ... 1.0000e-11
Integration weight cutoff        WCut        ... 1.0000e-14
Partially contracted basis set               ... off
Rotationally invariant grid construction     ... off
Angular grids for H and He will be reduced by one unit

Total number of grid points                  ...    68339
Total number of batches                      ...     1079
Average number of points per batch           ...       63
Average number of grid points per atom       ...     4271

--------------------
COSX GRID GENERATION
--------------------

GRIDX 1
-------
General Integration Accuracy     IntAcc      ... 3.816
Radial Grid Type                 RadialGrid  ... OptM3 with GC (2021)
Angular Grid (max. ang.)         AngularGrid ... 1 (Lebedev-50)
Angular grid pruning method      GridPruning ... 4 (adaptive)
Weight generation scheme         WeightScheme... mBecke (2022)
Basis function cutoff            BFCut       ... 1.0000e-11
Integration weight cutoff        WCut        ... 1.0000e-14
Partially contracted basis set               ... on
Rotationally invariant grid construction     ... off
Angular grids for H and He will be reduced by one unit

Total number of grid points                  ...     8785
Total number of batches                      ...       80
Average number of points per batch           ...      109
Average number of grid points per atom       ...      549
UseSFitting                                  ... on

GRIDX 2
-------
General Integration Accuracy     IntAcc      ... 4.020
Radial Grid Type                 RadialGrid  ... OptM3 with GC (2021)
Angular Grid (max. ang.)         AngularGrid ... 2 (Lebedev-110)
Angular grid pruning method      GridPruning ... 4 (adaptive)
Weight generation scheme         WeightScheme... mBecke (2022)
Basis function cutoff            BFCut       ... 1.0000e-11
Integration weight cutoff        WCut        ... 1.0000e-14
Partially contracted basis set               ... on
Rotationally invariant grid construction     ... off
Angular grids for H and He will be reduced by one unit

Total number of grid points                  ...    18421
Total number of batches                      ...      152
Average number of points per batch           ...      121
Average number of grid points per atom       ...     1151
UseSFitting                                  ... on

GRIDX 3
-------
General Integration Accuracy     IntAcc      ... 4.338
Radial Grid Type                 RadialGrid  ... OptM3 with GC (2021)
Angular Grid (max. ang.)         AngularGrid ... 3 (Lebedev-194)
Angular grid pruning method      GridPruning ... 4 (adaptive)
Weight generation scheme         WeightScheme... mBecke (2022)
Basis function cutoff            BFCut       ... 1.0000e-11
Integration weight cutoff        WCut        ... 1.0000e-14
Partially contracted basis set               ... on
Rotationally invariant grid construction     ... off
Angular grids for H and He will be reduced by one unit

Total number of grid points                  ...    40275
Total number of batches                      ...      321
Average number of points per batch           ...      125
Average number of grid points per atom       ...     2517
UseSFitting                                  ... on
Grids setup in   0.9 sec
Initializing property integral containers    ... done (  0.0 sec)

SHARK setup successfully completed in   1.0 seconds

Maximum memory used throughout the entire STARTUP-calculation: 18.2 MB


           ************************************************************
           *        Program running with 6 parallel MPI-processes     *
           *              working on a common directory               *
           ************************************************************
-------------------------------------------------------------------------------
                                 ORCA GUESS
                   Start orbitals & Density for SCF / CASSCF
-------------------------------------------------------------------------------

------------
SCF SETTINGS
------------
Hamiltonian:
 Density Functional     Method          .... DFT(GTOs)
 Exchange Functional    Exchange        .... B88
   X-Alpha parameter    XAlpha          ....  0.666667
   Becke's b parameter  XBeta           ....  0.004200
 Correlation Functional Correlation     .... LYP
 LDA part of GGA corr.  LDAOpt          .... VWN-5
 Gradients option       PostSCFGGA      .... off
 Hybrid DFT is turned on
   Fraction HF Exchange ScalHFX         ....  0.200000
   Scaling of DF-GGA-X  ScalDFX         ....  0.720000
   Scaling of DF-GGA-C  ScalDFC         ....  0.810000
   Scaling of DF-LDA-C  ScalLDAC        ....  1.000000
   Perturbative correction              ....  0.000000
   NL short-range parameter             ....  4.800000
 RI-approximation to the Coulomb term is turned on
   Number of AuxJ basis functions       .... 404
   RIJ-COSX (HFX calculated with COS-X)).... on


General Settings:
 Integral files         IntName         .... orca
 Hartree-Fock type      HFTyp           .... RHF
 Total Charge           Charge          ....    0
 Multiplicity           Mult            ....    1
 Number of Electrons    NEL             ....   46
 Basis Dimension        Dim             ....  134
 Nuclear Repulsion      ENuc            ....    222.7947834250 Eh

Convergence Acceleration:
 AO-DIIS                CNVDIIS         .... on
   Start iteration      DIISMaxIt       ....    12
   Startup error        DIISStart       ....  0.200000
   # of expansion vecs  DIISMaxEq       ....     5
   Bias factor          DIISBfac        ....   1.050
   Max. coefficient     DIISMaxC        ....  10.000
 MO-DIIS                CNVKDIIS        .... off
 Trust-Rad. Augm. Hess. CNVTRAH         .... auto
   Auto Start mean grad. ratio tolernc. ....  1.125000
   Auto Start start iteration           ....    50
   Auto Start num. interpolation iter.  ....    10
   Max. Number of Micro iterations      ....    24
   Max. Number of Macro iterations      .... Maxiter - #DIIS iter
   Number of Davidson start vectors     ....     2
   Converg. threshold    (grad. norm)   ....   1.000e-05
   Grad. Scal. Fac. for Micro threshold ....   0.100
   Minimum threshold for Micro iter.    ....   1.000e-02
   NR start threshold (gradient norm)   ....   1.000e-04
   Initial trust radius                 ....   0.400
   Minimum AH scaling param. (alpha)    ....   1.000
   Maximum AH scaling param. (alpha)    .... 1000.000
   Quad. conv. algorithm                .... NR
   White noise on init. David. guess    .... on
   Maximum white noise                  ....   0.010
   Pseudo random numbers                .... off
   Inactive MOs                         .... canonical
   Orbital update algorithm             .... Taylor
   Preconditioner                       .... Diag
   Full preconditioner red. dimension   ....   250
 SOSCF                 CNVSOSCF           .... on
   Start iteration     SOSCFMaxIt         ....   150
   Startup grad/error  SOSCFStart         ....  0.003300
   Hessian update      SOSCFHessUp        .... L-BFGS
   Autom. constraints  SOSCFAutoConstrain .... off
 Level Shifting         CNVShift        .... on
   Level shift para.    LevelShift      ....    0.2500
   Turn off err/grad.   ShiftErr        ....    0.0010
 Zerner damping         CNVZerner       .... off
 Static damping         CNVDamp         .... on
   Fraction old density DampFac         ....    0.7000
   Max. Damping (<1)    DampMax         ....    0.9800
   Min. Damping (>=0)   DampMin         ....    0.0000
   Turn off err/grad.   DampErr         ....    0.1000

SCF Procedure:
 Maximum # iterations   MaxIter         ....   125
 SCF integral mode      SCFMode         .... Direct
   Integral package                     .... SHARK and LIBINT hybrid scheme
 Reset frequency        DirectResetFreq ....    20
 Integral Threshold     Thresh          ....  2.500e-11 Eh
 Primitive CutOff       TCut            ....  2.500e-12 Eh

Convergence Tolerance:
 Convergence Check Mode ConvCheckMode   .... Total+1el-Energy
 Convergence forced     ConvForced      .... 0
 Energy Change          TolE            ....  1.000e-08 Eh
 1-El. energy change                    ....  1.000e-05 Eh
 Orbital Gradient       TolG            ....  1.000e-05
 Orbital Rotation angle TolX            ....  1.000e-05
 DIIS Error             TolErr          ....  5.000e-07

------------------------------
INITIAL GUESS: MODEL POTENTIAL
------------------------------
Loading Hartree-Fock densities                     ... done
Calculating cut-offs                               ... done
Initializing the effective Hamiltonian             ... done
Setting up the integral package (SHARK)            ... done
Starting the Coulomb interaction                   ... done (   0.0 sec)
Making the grid                                    ... done (   0.1 sec)
Mapping shells                                     ... done
Starting the XC term evaluation                    ... done (   0.0 sec)
  promolecular density results
     # of electrons  =     45.993904346
     EX              =    -33.727448127
     EC              =     -1.466833971
     EX+EC           =    -35.194282097
Transforming the Hamiltonian                       ... done (   0.0 sec)
Diagonalizing the Hamiltonian                      ... done (   0.0 sec)
Back transforming the eigenvectors                 ... done (   0.0 sec)
Now organizing SCF variables                       ... done
                      ------------------
                      INITIAL GUESS DONE (   0.2 sec)
                      ------------------
             **** ENERGY FILE WAS UPDATED (orca.en.tmp) ****
Finished Guess after   0.3 sec
Maximum memory used throughout the entire GUESS-calculation: 8.6 MB


           ************************************************************
           *        Program running with 6 parallel MPI-processes     *
           *              working on a common directory               *
           ************************************************************

-------------------------------------------------------------------------------------------
                                      ORCA LEAN-SCF
                              memory conserving SCF solver
-------------------------------------------------------------------------------------------

----------------------------------------D-I-I-S--------------------------------------------
Iteration    Energy (Eh)           Delta-E    RMSDP     MaxDP     DIISErr   Damp  Time(sec)
-------------------------------------------------------------------------------------------
               ***  Starting incremental Fock matrix formation  ***
    1    -233.9582791699507425     0.00e+00  8.48e-03  7.43e-02  1.50e-01  0.700   0.7
Warning: op=0 Small HOMO/LUMO gap (   0.089) - skipping pre-diagonalization
         Will do a full diagonalization
    2    -234.0366701485905878    -7.84e-02  6.61e-03  5.17e-02  8.21e-02  0.700   0.5
                               ***Turning on AO-DIIS***
    3    -234.0693742260343697    -3.27e-02  2.81e-03  1.94e-02  3.34e-02  0.700   0.5
    4    -234.0882051044707737    -1.88e-02  4.85e-03  3.43e-02  1.59e-02  0.000   0.5
    5    -234.1287275722699519    -4.05e-02  9.81e-04  7.09e-03  8.04e-03  0.000   0.5
    6    -234.1290774520894047    -3.50e-04  3.75e-04  3.34e-03  3.38e-03  0.000   0.5
                              *** Initializing SOSCF ***
---------------------------------------S-O-S-C-F--------------------------------------
Iteration    Energy (Eh)           Delta-E    RMSDP     MaxDP     MaxGrad    Time(sec)
--------------------------------------------------------------------------------------
    7    -234.1291162023765082    -3.88e-05  1.57e-04  1.53e-03  7.60e-04     0.5
               *** Restarting incremental Fock matrix formation ***
    8    -234.1291352328436233    -1.90e-05  1.37e-04  1.29e-03  1.20e-04     0.8
    9    -234.1291322372252353     3.00e-06  1.25e-04  1.36e-03  9.49e-04     0.7
   10    -234.1291358826268834    -3.65e-06  8.91e-05  7.80e-04  1.66e-04     0.7
   11    -234.1291355793142657     3.03e-07  3.87e-05  3.55e-04  2.55e-04     0.7
   12    -234.1291363325811972    -7.53e-07  1.93e-05  1.50e-04  4.34e-05     0.7
   13    -234.1291363209070937     1.17e-08  9.01e-06  7.41e-05  4.30e-05     0.6
   14    -234.1291363532203036    -3.23e-08  3.04e-06  1.90e-05  2.35e-06     0.6
                  *** Gradient check signals convergence ***

               *****************************************************
               *                     SUCCESS                       *
               *           SCF CONVERGED AFTER  14 CYCLES          *
               *****************************************************

Recomputing exchange energy using gridx3       ... done (    1.242 sec)
Old exchange energy                            :     -6.874288452 Eh
New exchange energy                            :     -6.874299265 Eh
Exchange energy change after final integration :     -0.000010813 Eh
Total energy after final integration           :   -234.129147166 Eh
             **** ENERGY FILE WAS UPDATED (orca.en.tmp) ****

----------------
TOTAL SCF ENERGY
----------------

Total Energy       :       -234.12914716626500 Eh           -6370.97799 eV

Components:
Nuclear Repulsion  :        222.79478342495429 Eh            6062.55427 eV
Electronic Energy  :       -456.92391977808393 Eh          -12433.53197 eV
One Electron Energy:       -754.66333096991150 Eh          -20535.43324 eV
Two Electron Energy:        297.73941119182757 Eh            8101.90127 eV

Virial components:
Potential Energy   :       -465.47885895358957 Eh          -12666.32370 eV
Kinetic Energy     :        231.34971178732459 Eh            6295.34571 eV
Virial Ratio       :          2.01201399974725

DFT components:
N(Alpha)           :       22.999975757405 electrons
N(Beta)            :       22.999975757405 electrons
N(Total)           :       45.999951514810 electrons
E(X)               :      -27.307297677617 Eh       
E(C)               :       -1.742767166602 Eh       
E(XC)              :      -29.050064844219 Eh       

---------------
SCF CONVERGENCE
---------------

  Last Energy change         ...    3.2313e-08  Tolerance :   1.0000e-08
  Last MAX-Density change    ...    1.8982e-05  Tolerance :   1.0000e-07
  Last RMS-Density change    ...    3.0415e-06  Tolerance :   5.0000e-09
  Last DIIS Error            ...    7.5983e-04  Tolerance :   5.0000e-07
  Last Orbital Gradient      ...    2.3468e-06  Tolerance :   1.0000e-05
  Last Orbital Rotation      ...    1.4498e-05  Tolerance :   1.0000e-05


----------------
ORBITAL ENERGIES
----------------

  NO   OCC          E(Eh)            E(eV) 
   0   2.0000     -10.206477      -277.7324 
   1   2.0000     -10.205105      -277.6950 
   2   2.0000     -10.193325      -277.3745 
   3   2.0000     -10.188869      -277.2532 
   4   2.0000     -10.178637      -276.9748 
   5   2.0000     -10.171720      -276.7866 
   6   2.0000      -0.822103       -22.3706 
   7   2.0000      -0.744941       -20.2709 
   8   2.0000      -0.700030       -19.0488 
   9   2.0000      -0.616410       -16.7734 
  10   2.0000      -0.582838       -15.8598 
  11   2.0000      -0.520568       -14.1654 
  12   2.0000      -0.484356       -13.1800 
  13   2.0000      -0.449565       -12.2333 
  14   2.0000      -0.445058       -12.1107 
  15   2.0000      -0.415425       -11.3043 
  16   2.0000      -0.406049       -11.0492 
  17   2.0000      -0.389495       -10.5987 
  18   2.0000      -0.351448        -9.5634 
  19   2.0000      -0.341669        -9.2973 
  20   2.0000      -0.329406        -8.9636 
  21   2.0000      -0.259196        -7.0531 
  22   2.0000      -0.165216        -4.4958 
  23   0.0000      -0.071731        -1.9519 
  24   0.0000       0.011407         0.3104 
  25   0.0000       0.065307         1.7771 
  26   0.0000       0.084839         2.3086 
  27   0.0000       0.088239         2.4011 
  28   0.0000       0.093947         2.5564 
  29   0.0000       0.123709         3.3663 
  30   0.0000       0.137700         3.7470 
  31   0.0000       0.142553         3.8791 
  32   0.0000       0.160339         4.3630 
  33   0.0000       0.165534         4.5044 
*Only the first 10 virtual orbitals were printed.

                    ********************************
                    * MULLIKEN POPULATION ANALYSIS *
                    ********************************

-----------------------
MULLIKEN ATOMIC CHARGES
-----------------------
   0 C :   -0.022434
   1 C :   -0.037088
   2 C :   -0.004435
   3 C :   -0.108171
   4 C :   -0.120420
   5 C :    0.018261
   6 H :    0.006661
   7 H :    0.010834
   8 H :    0.017019
   9 H :    0.025357
  10 H :    0.025246
  11 H :    0.050183
  12 H :    0.035432
  13 H :    0.039104
  14 H :    0.047033
  15 H :    0.017417
Sum of atomic charges:    0.0000000

--------------------------------
MULLIKEN REDUCED ORBITAL CHARGES
--------------------------------
  0 C s       :     3.102177  s :     3.102177
      pz      :     0.984942  p :     2.893587
      px      :     0.999866
      py      :     0.908779
      dz2     :     0.007042  d :     0.026669
      dxz     :     0.004175
      dyz     :     0.007437
      dx2y2   :     0.004692
      dxy     :     0.003323

  1 C s       :     3.142454  s :     3.142454
      pz      :     0.948099  p :     2.859274
      px      :     0.958551
      py      :     0.952624
      dz2     :     0.007540  d :     0.035361
      dxz     :     0.004198
      dyz     :     0.011302
      dx2y2   :     0.006545
      dxy     :     0.005776

  2 C s       :     3.032754  s :     3.032754
      pz      :     0.998225  p :     2.926440
      px      :     0.956685
      py      :     0.971530
      dz2     :     0.008277  d :     0.045241
      dxz     :     0.008209
      dyz     :     0.009897
      dx2y2   :     0.010840
      dxy     :     0.008018

  3 C s       :     3.154701  s :     3.154701
      pz      :     0.960999  p :     2.929432
      px      :     1.017418
      py      :     0.951015
      dz2     :     0.008143  d :     0.024038
      dxz     :     0.002807
      dyz     :     0.006881
      dx2y2   :     0.004476
      dxy     :     0.001731

  4 C s       :     3.144281  s :     3.144281
      pz      :     1.089319  p :     2.952697
      px      :     0.902555
      py      :     0.960823
      dz2     :     0.001578  d :     0.023443
      dxz     :     0.003443
      dyz     :     0.002671
      dx2y2   :     0.008540
      dxy     :     0.007210

  5 C s       :     3.016639  s :     3.016639
      pz      :     0.971287  p :     2.923249
      px      :     0.951976
      py      :     0.999987
      dz2     :     0.004331  d :     0.041850
      dxz     :     0.007143
      dyz     :     0.012671
      dx2y2   :     0.010610
      dxy     :     0.007095

  6 H s       :     0.970644  s :     0.970644
      pz      :     0.009550  p :     0.022695
      px      :     0.005313
      py      :     0.007832

  7 H s       :     0.965485  s :     0.965485
      pz      :     0.010025  p :     0.023681
      px      :     0.005642
      py      :     0.008014

  8 H s       :     0.959625  s :     0.959625
      pz      :     0.004221  p :     0.023356
      px      :     0.005104
      py      :     0.014031

  9 H s       :     0.950581  s :     0.950581
      pz      :     0.007463  p :     0.024062
      px      :     0.012360
      py      :     0.004239

 10 H s       :     0.950133  s :     0.950133
      pz      :     0.006511  p :     0.024621
      px      :     0.005191
      py      :     0.012919

 11 H s       :     0.925857  s :     0.925857
      pz      :     0.010348  p :     0.023960
      px      :     0.004369
      py      :     0.009243

 12 H s       :     0.936455  s :     0.936455
      pz      :     0.012159  p :     0.028113
      px      :     0.008056
      py      :     0.007898

 13 H s       :     0.936991  s :     0.936991
      pz      :     0.003866  p :     0.023905
      px      :     0.006271
      py      :     0.013768

 14 H s       :     0.928900  s :     0.928900
      pz      :     0.013186  p :     0.024068
      px      :     0.005707
      py      :     0.005175

 15 H s       :     0.960678  s :     0.960678
      pz      :     0.010713  p :     0.021905
      px      :     0.006198
      py      :     0.004993



                     *******************************
                     * LOEWDIN POPULATION ANALYSIS *
                     *******************************

----------------------
LOEWDIN ATOMIC CHARGES
----------------------
   0 C :   -0.060256
   1 C :   -0.019500
   2 C :   -0.032626
   3 C :   -0.055678
   4 C :   -0.117924
   5 C :   -0.011897
   6 H :    0.025147
   7 H :    0.018508
   8 H :    0.023906
   9 H :    0.016095
  10 H :    0.013497
  11 H :    0.049563
  12 H :    0.072052
  13 H :    0.020521
  14 H :    0.022138
  15 H :    0.036454

-------------------------------
LOEWDIN REDUCED ORBITAL CHARGES
-------------------------------
  0 C s       :     2.885455  s :     2.885455
      pz      :     1.052556  p :     3.105386
      px      :     1.013887
      py      :     1.038943
      dz2     :     0.017471  d :     0.069415
      dxz     :     0.011205
      dyz     :     0.020047
      dx2y2   :     0.011631
      dxy     :     0.009061

  1 C s       :     2.877051  s :     2.877051
      pz      :     1.051000  p :     3.053060
      px      :     0.981158
      py      :     1.020903
      dz2     :     0.019196  d :     0.089389
      dxz     :     0.011185
      dyz     :     0.028639
      dx2y2   :     0.015732
      dxy     :     0.014636

  2 C s       :     2.842865  s :     2.842865
      pz      :     1.054798  p :     3.081179
      px      :     0.980865
      py      :     1.045516
      dz2     :     0.021089  d :     0.108581
      dxz     :     0.017209
      dyz     :     0.025392
      dx2y2   :     0.028868
      dxy     :     0.016024

  3 C s       :     2.917616  s :     2.917616
      pz      :     1.042859  p :     3.079380
      px      :     0.988266
      py      :     1.048255
      dz2     :     0.020589  d :     0.058681
      dxz     :     0.005110
      dyz     :     0.019430
      dx2y2   :     0.009670
      dxy     :     0.003882

  4 C s       :     2.905398  s :     2.905398
      pz      :     1.082109  p :     3.151621
      px      :     1.015497
      py      :     1.054014
      dz2     :     0.004136  d :     0.060906
      dxz     :     0.007552
      dyz     :     0.005458
      dx2y2   :     0.023185
      dxy     :     0.020574

  5 C s       :     2.865954  s :     2.865954
      pz      :     1.002259  p :     3.045872
      px      :     0.989799
      py      :     1.053814
      dz2     :     0.011592  d :     0.100071
      dxz     :     0.012163
      dyz     :     0.032774
      dx2y2   :     0.025117
      dxy     :     0.018426

  6 H s       :     0.908018  s :     0.908018
      pz      :     0.027375  p :     0.066835
      px      :     0.015500
      py      :     0.023960

  7 H s       :     0.912811  s :     0.912811
      pz      :     0.028579  p :     0.068682
      px      :     0.016740
      py      :     0.023362

  8 H s       :     0.908968  s :     0.908968
      pz      :     0.011836  p :     0.067127
      px      :     0.014952
      py      :     0.040339

  9 H s       :     0.911883  s :     0.911883
      pz      :     0.024712  p :     0.072021
      px      :     0.035666
      py      :     0.011643

 10 H s       :     0.912318  s :     0.912318
      pz      :     0.021111  p :     0.074185
      px      :     0.014523
      py      :     0.038551

 11 H s       :     0.881409  s :     0.881409
      pz      :     0.027215  p :     0.069029
      px      :     0.014054
      py      :     0.027760

 12 H s       :     0.852852  s :     0.852852
      pz      :     0.035561  p :     0.075096
      px      :     0.016869
      py      :     0.022666

 13 H s       :     0.904424  s :     0.904424
      pz      :     0.011752  p :     0.075055
      px      :     0.022103
      py      :     0.041199

 14 H s       :     0.901485  s :     0.901485
      pz      :     0.040435  p :     0.076377
      px      :     0.020844
      py      :     0.015098

 15 H s       :     0.897521  s :     0.897521
      pz      :     0.031348  p :     0.066024
      px      :     0.019113
      py      :     0.015563



                      *****************************
                      * MAYER POPULATION ANALYSIS *
                      *****************************

  NA   - Mulliken gross atomic population
  ZA   - Total nuclear charge
  QA   - Mulliken gross atomic charge
  VA   - Mayer's total valence
  BVA  - Mayer's bonded valence
  FA   - Mayer's free valence

  ATOM       NA         ZA         QA         VA         BVA        FA
  0 C      6.0224     6.0000    -0.0224     3.9533     3.9533     0.0000
  1 C      6.0371     6.0000    -0.0371     4.1029     4.1029     0.0000
  2 C      6.0044     6.0000    -0.0044     4.0315     4.0315    -0.0000
  3 C      6.1082     6.0000    -0.1082     3.9098     3.9098    -0.0000
  4 C      6.1204     6.0000    -0.1204     3.9392     3.9392     0.0000
  5 C      5.9817     6.0000     0.0183     3.9738     3.9738     0.0000
  6 H      0.9933     1.0000     0.0067     0.9778     0.9778     0.0000
  7 H      0.9892     1.0000     0.0108     0.9944     0.9944    -0.0000
  8 H      0.9830     1.0000     0.0170     0.9738     0.9738     0.0000
  9 H      0.9746     1.0000     0.0254     0.9809     0.9809    -0.0000
 10 H      0.9748     1.0000     0.0252     0.9978     0.9978    -0.0000
 11 H      0.9498     1.0000     0.0502     0.9782     0.9782     0.0000
 12 H      0.9646     1.0000     0.0354     1.0182     1.0182     0.0000
 13 H      0.9609     1.0000     0.0391     0.9810     0.9810    -0.0000
 14 H      0.9530     1.0000     0.0470     0.9919     0.9919    -0.0000
 15 H      0.9826     1.0000     0.0174     0.9709     0.9709    -0.0000

  Mayer bond orders larger than 0.100000
B(  0-C ,  1-C ) :   2.0119 B(  0-C ,  7-H ) :   0.9418 B(  0-C ,  8-H ) :   0.9457 
B(  1-C ,  2-C ) :   1.0395 B(  1-C ,  6-H ) :   0.9512 B(  2-C ,  3-C ) :   1.1600 
B(  2-C ,  5-C ) :   0.8985 B(  2-C , 15-H ) :   0.9084 B(  3-C ,  4-C ) :   0.5557 
B(  3-C , 12-H ) :   0.2001 B(  3-C , 13-H ) :   0.9593 B(  3-C , 14-H ) :   0.9518 
B(  4-C ,  5-C ) :   1.3761 B(  4-C ,  9-H ) :   0.9653 B(  4-C , 10-H ) :   0.9591 
B(  5-C , 11-H ) :   0.9027 B(  5-C , 12-H ) :   0.7725 

-------
TIMINGS
-------

Total SCF time: 0 days 0 hours 0 min 10 sec 

Total time                  ....      10.364 sec
Sum of individual times     ....       9.777 sec  ( 94.3%)

SCF preparation             ....       0.187 sec  (  1.8%)
Fock matrix formation       ....       9.297 sec  ( 89.7%)
  Startup                   ....       0.006 sec  (  0.1% of F)
  Split-RI-J                ....       0.800 sec  (  8.6% of F)
  Chain of spheres X        ....       6.978 sec  ( 75.1% of F)
  XC integration            ....       1.883 sec  ( 20.3% of F)
    XC Preparation          ....       0.000 sec  (  0.0% of XC)
    Basis function eval.    ....       0.622 sec  ( 33.0% of XC)
    Density eval.           ....       0.342 sec  ( 18.2% of XC)
    XC-Functional eval.     ....       0.114 sec  (  6.0% of XC)
    XC-Potential eval.      ....       0.385 sec  ( 20.4% of XC)
Diagonalization             ....       0.000 sec  (  0.0%)
Density matrix formation    ....       0.037 sec  (  0.4%)
Total Energy calculation    ....       0.020 sec  (  0.2%)
Population analysis         ....       0.022 sec  (  0.2%)
Orbital Transformation      ....       0.022 sec  (  0.2%)
Orbital Orthonormalization  ....       0.000 sec  (  0.0%)
DIIS solution               ....       0.111 sec  (  1.1%)
SOSCF solution              ....       0.081 sec  (  0.8%)
Finished LeanSCF after  10.4 sec

Maximum memory used throughout the entire LEANSCF-calculation: 12.1 MB


-------------------------------------------------------------------------------
                          DFT DISPERSION CORRECTION                            
                                                                               
                              DFTD3 V3.1  Rev 1                                
                          USING Becke-Johnson damping                          
-------------------------------------------------------------------------------
The B3LYP functional is recognized
Active option DFTDOPT                   ...         4   

molecular C6(AA) [au] = 2140.718454 


            DFT-D V3
 parameters
 s6 scaling factor         :     1.0000 
 a1 scaling factor         :     0.3981 
 s8 scaling factor         :     1.9889 
 a2 scaling factor         :     4.4211 
 ad hoc parameters k1-k3   :    16.0000     1.3333    -4.0000 

 Edisp/kcal,au: -14.200193590218  -0.022629446506 
 E6   /kcal   :  -6.864657612 
 E8   /kcal   :  -7.335535978 
 % E8         :  51.657999814 

-------------------------   ----------------
Dispersion correction           -0.022629447
-------------------------   ----------------


-------------------------   --------------------
FINAL SINGLE POINT ENERGY      -234.151776612771
-------------------------   --------------------



           ************************************************************
           *        Program running with 6 parallel MPI-processes     *
           *              working on a common directory               *
           ************************************************************
------------------------------------------------------------------------------
                         ORCA SCF GRADIENT CALCULATION
------------------------------------------------------------------------------

Nuc. rep. gradient        (SHARK) ... done (  0.0 sec)
HCore & Overlap gradient  (SHARK) ... done (  0.0 sec)
Split-RIJ-J gradient      (SHARK) ... done (  0.2 sec)
done (  4.7 sec)
XC gradient                       ... done (  0.9 sec)
Dispersion correction             ... done (  0.0 sec)

-------------------
DISPERSION GRADIENT
-------------------

   1   C   :   -0.000510416   -0.000578854    0.000268824
   2   C   :   -0.000427692   -0.000402222   -0.000075536
   3   C   :   -0.000134290    0.000200676   -0.000136173
   4   C   :   -0.000044244    0.000510714    0.000139356
   5   C   :    0.000819263   -0.000152777   -0.000178976
   6   C   :    0.000208817    0.000290801   -0.000045421
   7   H   :   -0.000138714   -0.000276406   -0.000146118
   8   H   :   -0.000188652   -0.000165276    0.000194323
   9   H   :   -0.000108702   -0.000171738    0.000077426
  10   H   :    0.000264272   -0.000071667    0.000009362
  11   H   :    0.000309288   -0.000205929   -0.000096449
  12   H   :    0.000165436    0.000191803   -0.000193757
  13   H   :    0.000145197    0.000180299    0.000024713
  14   H   :   -0.000112130    0.000268533    0.000112901
  15   H   :   -0.000074204    0.000235640    0.000281065
  16   H   :   -0.000173229    0.000146403   -0.000235541

Difference to translation invariance:
           :    0.0000000000    0.0000000000   -0.0000000000

Difference to rotation invariance:
           :   -0.0000000000   -0.0000000000    0.0000000000

Norm of the Dispersion gradient    ...    0.0017949371
RMS gradient                       ...    0.0002590769
MAX gradient                       ...    0.0008192628

------------------
CARTESIAN GRADIENT
------------------

   1   C   :   -0.000049959   -0.000041864    0.000150818
   2   C   :   -0.000038004   -0.000019112   -0.000061770
   3   C   :   -0.000085284   -0.000011258   -0.000006839
   4   C   :   -0.000039748   -0.000079420   -0.000026698
   5   C   :    0.000119711    0.000050425   -0.000093388
   6   C   :   -0.000026425    0.000035456   -0.000040949
   7   H   :    0.000069173    0.000051358    0.000075868
   8   H   :    0.000011349    0.000045757   -0.000059209
   9   H   :   -0.000037366   -0.000003631    0.000004475
  10   H   :   -0.000074697   -0.000044407   -0.000005136
  11   H   :    0.000019975   -0.000003990    0.000019385
  12   H   :    0.000044898    0.000044955   -0.000020292
  13   H   :    0.000031988   -0.000002855    0.000028337
  14   H   :    0.000051446   -0.000022545    0.000048911
  15   H   :   -0.000028126   -0.000015047   -0.000003002
  16   H   :    0.000031069    0.000016179   -0.000010511

Difference to translation invariance:
           :   -0.0000000000    0.0000000000    0.0000000000

Difference to rotation invariance:
           :    0.0000634140    0.0000914998   -0.0001117038

Norm of the Cartesian gradient     ...    0.0003475523
RMS gradient                       ...    0.0000501649
MAX gradient                       ...    0.0001508175

-------
TIMINGS
-------

Total SCF gradient time     ....        5.918 sec

Densities                   ....       0.001 sec  (  0.0%)
One electron gradient       ....       0.049 sec  (  0.8%)
RI-J Coulomb gradient       ....       0.248 sec  (  4.2%)
COSX gradient               ....       4.661 sec  ( 78.8%)
XC gradient                 ....       0.924 sec  ( 15.6%)

Maximum memory used throughout the entire SCFGRAD-calculation: 28.5 MB


           ************************************************************
           *        Program running with 6 parallel MPI-processes     *
           *              working on a common directory               *
           ************************************************************

------------------------------------------------------------------------------
                              ORCA PROPERTY CALCULATIONS
------------------------------------------------------------------------------

GBWName                                 ... orca.gbw
Number of atoms                         ...     16
Number of basis functions               ...    134
Max core memory                         ...   4096 MB

Electric properties:
Dipole moment                           ... YES
Quadrupole moment                       ...  NO
Static polarizability (Dipole/Dipole)   ...  NO
Static polarizability (Dipole/Quad.)    ...  NO
Static polarizability (Quad./Quad.)     ...  NO
Static polarizability (Velocity)        ...  NO
Static hyperpolarizability              ...  NO

Atomic electric properties:
Dipole moment                           ...  NO
Quadrupole moment                       ...  NO
Static polarizability                   ...  NO

Choice of electric origin               ... Center of mass
Position of electric origin             ...    -0.107595    -0.086952    -0.098761

General magnetic properties:
Magnetizability                         ...  NO

EPR properties:
g-Tensor (aka g-matrix)                 ...  NO
Zero-Field splitting spin-orbit         ...  NO
Zero-field splitting spin-spin          ...  NO
Hyperfine couplings                     ...  NO (   0 nuclei)
Quadrupole couplings                    ...  NO (   0 nuclei)
Contact density                         ...  NO (   0 nuclei)

NMR properties:
Chemical shifts                         ...  NO (   0 nuclei)
Spin-rotation constants                 ...  NO (   0 nuclei)
Spin-spin couplings                     ...  NO (   0 nuclei,    0 pairs)

Choice of magnetic origin               ... GIAO
Position of magnetic origin             ...     0.000000     0.000000     0.000000

Properties with geometric perturbations:
SCF Hessian                             ...  NO
IR spectrum                             ...  NO
VCD spectrum                            ...  NO
X-ray spectroscopy properties:
SCF XES/XAS/RIXS spectra                ...  NO

SCF SOC stabilization energy            ...  NO
Diagonal Born-Oppenheimer correction    ...  NO

-------------
DIPOLE MOMENT
-------------

Method             : SCF
Type of density    : Electron Density
Multiplicity       :   1
Irrep              :   0
Energy             :  -234.1291471662649997 Eh
Basis              : AO
                                X                 Y                 Z
Electronic contribution:     -1.056069774      -0.482821803      -0.900295331
Nuclear contribution   :      0.932966859       0.753964663       0.856361555
                        -----------------------------------------
Total Dipole Moment    :     -0.123102916       0.271142860      -0.043933777
                        -----------------------------------------
Magnitude (a.u.)       :      0.301003247
Magnitude (Debye)      :      0.765089452



--------------------
Rotational spectrum 
--------------------
 
Rotational constants in cm-1:             0.165316             0.093323             0.068848 
Rotational constants in MHz :          4956.054510          2797.763076          2064.004540 

Dipole components along the rotational axes: 
x,y,z [a.u.] :     0.015810    -0.280660    -0.107624 
x,y,z [Debye]:     0.040187    -0.713381    -0.273558 

 

Dipole moment calculation done in   0.0 sec 

Maximum memory used throughout the entire PROP-calculation: 6.7 MB

--------------------------------
SUGGESTED CITATIONS FOR THIS RUN
--------------------------------

Below you find a list of papers that are relevant to this ORCA run
We neither can nor want to force you to cite these papers, but we appreciate if you do
You receive ORCA, which is the product of decades of hard work by many enthusiastic individuals, for free
The only thing we kindly ask in return is that you cite our papers,
We deeply appreciate it, if you show your appreciation for ORCA by not just citing the generic ORCA reference.

Please note that relegating all ORCA citations to the supporting information does *not* help us.
SI sections are not indexed - citations you put there will not count into any citation statistics
But we need these citations in order to attract the funding resources that allow us to do what we are doing

Therefore, if you are a happy ORCA user, please consider citing a few of the papers listed below in the main body of your paper

In addition to the list printed below, the program has created the file orca.bibtex that contains the list in bibtex format
You can import this file easily into all common literature databanks and citation aid programs


List of essential papers. We consider these as the minimum necessary citations

  1. Neese, F.
     Software update: the ORCA program system, version 6.0
     WIRES Comput. Molec. Sci. 2025 15(1), e70019
     doi.org/10.1002/wcms.7019

List of papers to cite with high priority. The work reported in these papers was absolutely
necessary for this run to complete.
Our perspective: the developers of density functionals and basis sets usually get cited in chemistry papers
Good! But without the algorithms to do something with them, the functionals or basis sets would not do anything.
Hence, in our opinion, the algorithm design and method developments papers are equally worthy of getting cited

  1. Neese, F.
     An improvement of the resolution of the identity approximation for the formation of the Coulomb matrix
     J. Comp. Chem. 2003 24(14), 1740-1747
     doi.org/10.1002/jcc.10318
  2. Neese, F.; Wennmohs, F.; Hansen, A.; Becker, U.
     Efficient, approximate and parallel Hartree-Fock and hybrid DFT calculations. A 'chain-of-spheres' algorithm for the Hartree-Fock exchange
     Chem. Phys. 2009 356(1-3), 98-109
     doi.org/10.1016/j.chemphys.2008.10.036
  3. Grimme, S.; Antony, J.; Ehrlich, S.; Krieg, H.
     A consistent and accurate ab initio parametrization of density functional dispersion correction (DFT-D) for the 94 elements H-Pu
     J. Chem. Phys. 2010 132 , 154104
     doi.org/10.1063/1.3382344
  4. Grimme, S.; Ehrlich, S.; Goerigk, L.
     Effect of the damping function in dispersion corrected density functional theory
     J. Comput. Chem. 2011 32(7), 1456-1465
     doi.org/10.1002/jcc.21759
  5. Helmich-Paris, B.; de Souza, B.; Neese, F.; Izsák, R.
     An improved chain of spheres for exchange algorithm
     J. Chem. Phys. 2021 155(10), 104109
     doi.org/10.1063/5.0058766
  6. Neese, F.
     The SHARK Integral Generation and Digestion System
     J. Comp. Chem. 2022 44(3), 381
     doi.org/10.1002/jcc.26942

List of suggested additional citations. These are papers that are important in the 'surrounding' of 
of this run, or papers that preceded the highly important papers. If you like your results we are grateful for a citation.

  1. Izsak, R.; Neese, F.
     An overlap fitted chain of spheres exchange method
     J. Chem. Phys. 2011 135 , 144105
     doi.org/10.1063/1.3646921
  2. Izsak, R.; Hansen, A.; Neese, F.
     The resolution of identity and chain of spheres approximations for the LPNO-CCSD singles Fock term
     Molec. Phys. 2012 110 , 2413-2417
     doi.org/10.1080/00268976.2012.687466
  3. Neese, F.
     The ORCA program system
     WIRES Comput. Molec. Sci. 2012 2(1), 73-78
     doi.org/10.1002/wcms.81
  4. Izsak, R.; Neese, F.; Klopper, W.
     Robust fitting techniques in the chain of spheres approximation to the Fock exchange: The role of the complementary space
     J. Chem. Phys. 2013 139 , 
     doi.org/10.1063/1.4819264
  5. Neese, F.
     Software update: the ORCA program system, version 4.0
     WIRES Comput. Molec. Sci. 2018 8(1), 1-6
     doi.org/10.1002/wcms.1327
  6. Neese, F.; Wennmohs, F.; Becker, U.; Riplinger, C.
     The ORCA quantum chemistry program package
     J. Chem. Phys. 2020 152(22), 224108
     doi.org/10.1063/5.0004608
  7. Neese, F.
     Software update: The ORCA program system—Version 5.0
     WIRES Comput. Molec. Sci. 2022 12(1), e1606
     doi.org/10.1002/wcms.1606

List of optional additional citations

  1. Neese, F.
     Approximate second-order SCF convergence for spin unrestricted wavefunctions
     Chem. Phys. Lett. 2000 325(1-3), 93-98
     doi.org/10.1016/s0009-2614(00)00662-x

Timings for individual modules:

Sum of individual times          ...       19.726 sec (=   0.329 min)
Startup calculation              ...        1.456 sec (=   0.024 min)   7.4 %
SCF iterations                   ...       11.389 sec (=   0.190 min)  57.7 %
Property calculations            ...        0.461 sec (=   0.008 min)   2.3 %
SCF Gradient evaluation          ...        6.420 sec (=   0.107 min)  32.5 %
                             ****ORCA TERMINATED NORMALLY****
TOTAL RUN TIME: 0 days 0 hours 0 minutes 20 seconds 320 msec
