
                                 *****************
                                 * O   R   C   A *
                                 *****************

                                            #,                                       
                                            ###                                      
                                            ####                                     
                                            #####                                    
                                            ######                                   
                                           ########,                                 
                                     ,,################,,,,,                         
                               ,,#################################,,                 
                          ,,##########################################,,             
                       ,#########################################, ''#####,          
                    ,#############################################,,   '####,        
                  ,##################################################,,,,####,       
                ,###########''''           ''''###############################       
              ,#####''   ,,,,##########,,,,          '''####'''          '####       
            ,##' ,,,,###########################,,,                        '##       
           ' ,,###''''                  '''############,,,                           
         ,,##''                                '''############,,,,        ,,,,,,###''
      ,#''                                            '''#######################'''  
     '                                                          ''''####''''         
             ,#######,   #######,   ,#######,      ##                                
            ,#'     '#,  ##    ##  ,#'     '#,    #''#        ,####,    ,#,          
            ##       ##  ##   ,#'  ##            #'  '#       #'       ,# #          
            ##       ##  #######   ##           ,######,      #####,      #          
            '#,     ,#'  ##    ##  '#,     ,#' ,#      #,     #,   #      #          
             '#######'   ##     ##  '#######'  #'      '#     '####' #    #          



                #########################################################
                #                        -***-                          #
                #          Department of theory and spectroscopy        #
                #                                                       #
                #                      Frank Neese                      #
                #                                                       #
                #     Directorship, Architecture, Infrastructure        #
                #                    SHARK, DRIVERS                     #
                #        Core code/Algorithms in most modules           #
                #                                                       #
                #        Max Planck Institute fuer Kohlenforschung      #
                #                Kaiser Wilhelm Platz 1                 #
                #                 D-45470 Muelheim/Ruhr                 #
                #                      Germany                          #
                #                                                       #
                #                  All rights reserved                  #
                #                        -***-                          #
                #########################################################


                         Program Version 6.1.0  -  RELEASE   -
                                (GIT: $679e74b$)
                          ($2025-06-10 18:02:51 +0200$)


 With contributions from (in alphabetic order):
[Max-Planck-Institut fuer Kohlenforschung]                               
  Daniel Aravena         : Magnetic Suceptibility                        
  Michael Atanasov       : Ab Initio Ligand Field Theory (pilot matlab implementation)
  Alexander A. Auer      : GIAO ZORA, VPT2 properties, NMR spectrum      
  Ute Becker             : All parallelization in ORCA, NUMFREQ, NUMCALC 
  Giovanni Bistoni       : ED, misc. LED, open-shell LED, HFLD           
  Dmytro Bykov           : pre 5.0 version of the SCF Hessian            
  Marcos Casanova-Páez   : Triplet and SCS-CIS(D). UHF-(DLPNO)-IP/EA/STEOM-CCSD. UHF-CVS-IP/STEOM-CCSD   
  Vijay G. Chilkuri      : MRCI spin determinant printing, contributions to CSF-ICE 
  Pauline Colinet        : FMM embedding                                 
  Dipayan Datta          : RHF DLPNO-CCSD density                        
  Achintya Kumar Dutta   : EOM-CC, STEOM-CC                              
  Nicolas Foglia         : Exact transition moments, OPA infrastructure, MCD improvements    
  Dmitry Ganyushin       : Spin-Orbit,Spin-Spin,Magnetic field MRCI      
  Miquel Garcia-Rates    : C-PCM and meta-GGA Hessian, CCSD/C-PCM, Gaussian charge scheme 
  Tiago L. C. Gouveia    : GS-ROHF, GS-ROCIS                             
  Yang Guo               : DLPNO-NEVPT2, F12-NEVPT2, CIM, IAO-localization        
  Andreas Hansen         : Spin unrestricted coupled pair/coupled cluster methods 
  Ingolf Harden          : AUTO-CI MPn and infrastructure                
  Benjamin Helmich-Paris : MC-RPA, TRAH-(SCF,CASSCF), AVAS, COSX integrals, SCF dyn. polar., MC-PDFT, srDFT 
  Lee Huntington         : MR-EOM, pCC                                   
  Robert Izsak           : Overlap fitted RIJCOSX, COSX-SCS-MP3, EOM     
  Riya Kayal             : Wick's Theorem for AUTO-CI, AUTO-CI UHF-CCSDT 
  Emily Kempfer          : AUTO-CI RHF CISDT and CCSDT, approximate NEVPT4
  Christian Kollmar      : KDIIS, OOCD, Brueckner-CCSD(T), CCSD density, CASPT2, CASPT2-K, improved NEVPT2 
  Axel Koslowski         : Symmetry handling                             
  Simone Kossmann        : meta-GGA functionals, TD-DFT gradient, OOMP2, (MP2 Hessian; deprecated post 5.0) 
  Lucas Lang             : DCDCAS, Hyperfine gauge corrections, ICE-SOC+SSC
  Marvin Lechner         : AUTO-CI (C++ implementation), FIC-MRCC        
  Spencer Leger          : CASSCF response                               
  Dagmar Lenk            : GEPOL surface, SMD, ORCA-2-JSON               
  Dimitrios Liakos       : Extrapolation schemes; Compound Job, Property file
  Dimitrios Manganas     : Further ROCIS development; embedding schemes. LFT, Crystal Embedding 
  Dimitrios Pantazis     : SARC Basis sets                               
  Anastasios Papadopoulos: AUTO-CI, single reference methods and gradients 
  Taras Petrenko         : pre 6.0 DFT Hessian and TD-DFT gradient,  ECA, NRVS 
  Petra Pikulova         : Analytic Raman intensities                    
  Peter Pinski           : DLPNO-MP2, DLPNO-MP2 Gradient                 
  Shashank Vittal Rao    : ES-AILFT, MagRelax                            
  Christoph Reimann      : Effective Core Potentials                     
  Marius Retegan         : Local ZFS, SOC                                
  Christoph Riplinger    : Optimizer, TS searches, QM/MM, DLPNO-CCSD(T), (RO)-DLPNO pert. Triples 
  Michael Roemelt        : Original ROCIS implementation, recursive CI coupling coefficients
  Masaaki Saitow         : Open-shell DLPNO-CCSD energy and density      
  Barbara Sandhoefer     : DKH picture change effects                    
  Yorick L. A. Schmerwitz: GMF and freeze-and-release deltaSCF, NEB S-IDPP initial path                    
  Kantharuban Sivalingam : CASSCF convergence/infrastructure, NEVPT2, NEVPT3, NEVPT4(SD), FIC-MRCI and CEPA variants
  Bernardo de Souza      : ESD, SOC TD-DFT                               
  Georgi L. Stoychev     : AutoAux, RI-MP2 NMR, DLPNO-MP2 response, X2C  
  Van Anh Tran           : RI-MP2 g-tensors                              
  Willem Van den Heuvel  : Paramagnetic NMR                              
  Zikuan Wang            : NOTCH, Electric field optimization            
  Frank Wennmohs         : Technical directorship and infrastructure     
  Hang Xu                : AUTO-CI-Response properties                   
                                                                         
[FACCTs GmbH]                                                            
  Markus Bursch, Nicolas Foglia, Miquel Garcia-Rates, Ingolf Harden, Hagen Neugebauer, Anastasios Papadopoulos, 
  Christoph Riplinger, Bernardo de Souza, Georgi L. Stoychev                                                    
                                                                 
  APM, various basis sets, CI-OPT, improved COSX, DLPNO-Multilevel,           
  DOCKER, DRACO, updates on ESD, Fragmentator, GOAT, IRC, LR-CPCM, L-BFGS, MBIS, meta-GGA TD-DFT gradient, ML-optimized integration grids, 
  MM, NACMEs, nearIR, NEB, NEB-TS, NL-DFT gradient (VV10), 2- and 3-layer-ONIOM, interface openCOSMO-RS, QMMM,   
  Crystal-QMMM, RESP, rigid body optimization, SF, symmetry and pop. for TD-DFT, various functionals, SOLVATOR                                   
                                                                         
[Other institutions]                                                     
  V. Asgeirsson          : NEB                                           
  Christoph Bannwarth    : sTDA-DFT, sTD-DFT, PBEh-3c, B97-3c, D3        
  Giovanni Bistoni       : ETS/NOCV, ADLD/ADEX, COVALED                  
  Martin Brehm           : Molecular dynamics                            
  Ronald Cardenas        : ETS/NOCV                                      
  Martina Colucci        : COVALED                                       
  Sebastian Ehlert       : rSCAN, r2SCAN, r2SCAN-3c, D4, dhf basis sets  
  Marvin Friede          : D4 for Fr, Ra, Ac-Lr                          
  Lars Goerigk           : TD-DFT with DH, B97 family of functionals     
  Stefan Grimme          : VdW corrections, initial TS optimization, DFT functionals, gCP, sTDA/sTD-DF 
  Waldemar Hujo          : DFT-NL                                        
  H. Jonsson             : NEB                                           
  Holger Kruse           : gCP                                           
  Marcel Mueller         : wB97X-3c, vDZP basis set                      
  Hagen Neugebauer       : wr2SCAN, Native XTB                           
  Gianluca Regni         : ADLD/ADEX                                     
  Tobias Risthaus        : pre 6.0 range-separated hybrid DFT and stability analysis
  Lukas Wittmann         : regularized MP2, r2SCAN double-hybrids, wr2SCAN        
                                                                         
We gratefully acknowledge several colleagues who have allowed us to      
interface, adapt or use parts of their codes:                            
  Ed Valeev, F. Pavosevic, A. Kumar             : LibInt (2-el integral package), F12 methods 
  Garnet Chan, S. Sharma, J. Yang, R. Olivares  : DMRG                   
  Ulf Ekstrom                                   : XCFun DFT Library      
  Mihaly Kallay                                 : mrcc  (arbitrary order and MRCC methods)
  Frank Weinhold                                : gennbo (NPA and NBO analysis)           
  Simon Mueller                                 : openCOSMO-RS                            
  Christopher J. Cramer and Donald G. Truhlar   : smd solvation model                     
  S Lehtola, MJT Oliveira, MAL Marques          : LibXC Library                           
  Liviu Ungur et al                             : ANISO software                          


 Your calculation uses the libint2 library for the computation of 2-el integrals
 For citations please refer to: http://libint.valeyev.net

 Your ORCA version has been built with support for libXC version: 7.0.0
 For citations please refer to: https://libxc.gitlab.io

 This ORCA versions uses:
   CBLAS   interface :  Fast vector & matrix operations
   LAPACKE interface :  Fast linear algebra routines
   SCALAPACK package :  Parallel linear algebra routines
   Shared memory     :  Shared parallel matrices
   BLAS/LAPACK       :  OpenBLAS 0.3.29  USE64BITINT DYNAMIC_ARCH NO_AFFINITY Zen SINGLE_THREADED
        Core in use  :  Zen
   Copyright (c) 2011-2014, The OpenBLAS Project


  ***********************************
  * Starting time: Wed Sep 10 13:35:10 2025
  * Host name:     wyk-Server
  * Process ID:    2288613
  * Working dir.:  /home/wyk/Documents/code/openQDC/MGMR/singlepointcalc/45/sp
  ***********************************

Your calculation utilizes the atom-pairwise dispersion correction
with the Becke-Johnson damping scheme (D3BJ)


Warning: RI is on but no J-basis has been assigned. Assigning Def2/J (nothing to worry about!)
================================================================================

----- Orbital basis set information -----
Your calculation utilizes the basis: def2-SVP
   F. Weigend and R. Ahlrichs, Phys. Chem. Chem. Phys. 7, 3297 (2005).

----- AuxJ basis set information -----
Your calculation utilizes the auxiliary basis: def2/J
   H-Rn: F. Weigend, Phys. Chem. Chem. Phys. 8, 1057 (2006).
   Fr-Lr: K. Eichkorn, F. Weigend, O. Treutler, R. Ahlrichs; Theor. Chem. Acc. 97, 119 (1997).

================================================================================
                                        WARNINGS
                       Please study these warnings very carefully!
================================================================================


================================================================================
                                       INPUT FILE
================================================================================
NAME = orca.inp
|  1> ! B3LYP def2-SVP d3 EnGrad 
|  2> %pal nprocs 6 end 
|  3> *xyz 0 1 
|  4> C   2.22339859146436 0.66601219237016 -1.0979121976617
|  5> C   0.96727480856616 1.02596481369225 -0.36268818378185
|  6> C   0.01131859270039 0.19604153241958 0.09189546179977
|  7> C   0.00083793384667 -1.30434818399327 -0.03112529802773
|  8> O   -1.0783990688904 0.71846708821766 0.73603858882326
|  9> H   2.25972989673342 1.15075287421072 -2.09054020022827
| 10> H   2.3327731440504 -0.41680867491935 -1.25777010011076
| 11> H   3.12121978065684 1.01169194899412 -0.55365499843965
| 12> H   0.87328683301319 -1.69635632353992 -0.56903732297216
| 13> H   -0.90807954443222 -1.64553848192839 -0.55776705021566
| 14> H   -0.02078709893706 -1.77206281077686 0.9696331056129
| 15> H   -1.82356166085339 -0.04924911810893 1.53421038560577
| 16> H   0.79323054036931 2.09064125165548 -0.16978130247189
| 17> H   -2.29439481310714 0.25739840981989 0.45892301294392
| 18> O   -2.90491046983257 -0.40030441395338 1.22678077055007
| 19> H   -3.55293746534795 0.16769789584025 1.67279532857398
| 20> *
| 21> 
| 22>                          ****END OF INPUT****
================================================================================

                     *******************************
                     * Energy+Gradient Calculation *
                     *******************************

---------------------------------
CARTESIAN COORDINATES (ANGSTROEM)
---------------------------------
  C      2.223399    0.666012   -1.097912
  C      0.967275    1.025965   -0.362688
  C      0.011319    0.196042    0.091895
  C      0.000838   -1.304348   -0.031125
  O     -1.078399    0.718467    0.736039
  H      2.259730    1.150753   -2.090540
  H      2.332773   -0.416809   -1.257770
  H      3.121220    1.011692   -0.553655
  H      0.873287   -1.696356   -0.569037
  H     -0.908080   -1.645538   -0.557767
  H     -0.020787   -1.772063    0.969633
  H     -1.823562   -0.049249    1.534210
  H      0.793231    2.090641   -0.169781
  H     -2.294395    0.257398    0.458923
  O     -2.904910   -0.400304    1.226781
  H     -3.552937    0.167698    1.672795

----------------------------
CARTESIAN COORDINATES (A.U.)
----------------------------
  NO LB      ZA    FRAG     MASS         X           Y           Z
   0 C     6.0000    0    12.011    4.201614    1.258581   -2.074753
   1 C     6.0000    0    12.011    1.827884    1.938793   -0.685381
   2 C     6.0000    0    12.011    0.021389    0.370465    0.173657
   3 C     6.0000    0    12.011    0.001583   -2.464861   -0.058818
   4 O     8.0000    0    15.999   -2.037879    1.357706    1.390911
   5 H     1.0000    0     1.008    4.270271    2.174608   -3.950548
   6 H     1.0000    0     1.008    4.408302   -0.787654   -2.376841
   7 H     1.0000    0     1.008    5.898251    1.911821   -1.046256
   8 H     1.0000    0     1.008    1.650273   -3.205649   -1.075325
   9 H     1.0000    0     1.008   -1.716022   -3.109617   -1.054027
  10 H     1.0000    0     1.008   -0.039282   -3.348713    1.832341
  11 H     1.0000    0     1.008   -3.446032   -0.093067    2.899237
  12 H     1.0000    0     1.008    1.498988    3.950739   -0.320840
  13 H     1.0000    0     1.008   -4.335778    0.486413    0.867239
  14 O     8.0000    0    15.999   -5.489485   -0.756466    2.318280
  15 H     1.0000    0     1.008   -6.714079    0.316903    3.161125

--------------------------------
INTERNAL COORDINATES (ANGSTROEM)
--------------------------------
 C      0   0   0     0.000000000000     0.00000000     0.00000000
 C      1   0   0     1.499322246265     0.00000000     0.00000000
 C      2   1   0     1.345091532306   127.80797206     0.00000000
 C      3   2   1     1.505461142865   126.31711832     0.56637757
 O      3   2   1     1.369428132990   119.28290456   180.57031814
 H      1   2   3     1.105261889261   111.26279751   120.63358301
 H      1   2   3     1.100008351044   113.00994880   359.79666887
 H      1   2   3     1.105347583707   111.34412982   238.84596713
 H      4   3   2     1.097354459465   112.98862537   358.79189636
 H      4   3   2     1.104487816535   110.64428713   237.46635360
 H      4   3   2     1.104871936745   110.36591179   119.77306831
 H      5   3   2     1.334815971996   120.40300001   200.16393520
 H      2   1   3     1.095919882885   116.91062617   180.27780929
 H     12   5   3     1.213243379315    62.69713285   253.28068129
 O     12   5   3     1.177738526004   121.86441322   251.95059873
 H     15  12   5     0.970306444798   108.58564617   259.78545804

---------------------------
INTERNAL COORDINATES (A.U.)
---------------------------
 C      0   0   0     0.000000000000     0.00000000     0.00000000
 C      1   0   0     2.833308431936     0.00000000     0.00000000
 C      2   1   0     2.541854621115   127.80797206     0.00000000
 C      3   2   1     2.844909265275   126.31711832     0.56637757
 O      3   2   1     2.587844131439   119.28290456   180.57031814
 H      1   2   3     2.088642276964   111.26279751   120.63358301
 H      1   2   3     2.078714528499   113.00994880   359.79666887
 H      1   2   3     2.088804215998   111.34412982   238.84596713
 H      4   3   2     2.073699400226   112.98862537   358.79189636
 H      4   3   2     2.087179491503   110.64428713   237.46635360
 H      4   3   2     2.087905373504   110.36591179   119.77306831
 H      5   3   2     2.522436626257   120.40300001   200.16393520
 H      2   1   3     2.070988443372   116.91062617   180.27780929
 H     12   5   3     2.292697720699    62.69713285   253.28068129
 O     12   5   3     2.225603271516   121.86441322   251.95059873
 H     15  12   5     1.833613446647   108.58564617   259.78545804

---------------------
BASIS SET INFORMATION
---------------------
There are 3 groups of distinct atoms

 Group   1 Type C   : 7s4p1d contracted to 3s2p1d pattern {511/31/1}
 Group   2 Type O   : 7s4p1d contracted to 3s2p1d pattern {511/31/1}
 Group   3 Type H   : 4s1p contracted to 2s1p pattern {31/1}

Atom   0C    basis set group =>   1
Atom   1C    basis set group =>   1
Atom   2C    basis set group =>   1
Atom   3C    basis set group =>   1
Atom   4O    basis set group =>   2
Atom   5H    basis set group =>   3
Atom   6H    basis set group =>   3
Atom   7H    basis set group =>   3
Atom   8H    basis set group =>   3
Atom   9H    basis set group =>   3
Atom  10H    basis set group =>   3
Atom  11H    basis set group =>   3
Atom  12H    basis set group =>   3
Atom  13H    basis set group =>   3
Atom  14O    basis set group =>   2
Atom  15H    basis set group =>   3
---------------------------------
AUXILIARY/J BASIS SET INFORMATION
---------------------------------
There are 3 groups of distinct atoms

 Group   1 Type C   : 12s5p4d2f1g contracted to 6s4p3d1f1g pattern {711111/2111/211/2/1}
 Group   2 Type O   : 12s5p4d2f1g contracted to 6s4p3d1f1g pattern {711111/2111/211/2/1}
 Group   3 Type H   : 5s2p1d contracted to 3s1p1d pattern {311/2/1}

Atom   0C    basis set group =>   1
Atom   1C    basis set group =>   1
Atom   2C    basis set group =>   1
Atom   3C    basis set group =>   1
Atom   4O    basis set group =>   2
Atom   5H    basis set group =>   3
Atom   6H    basis set group =>   3
Atom   7H    basis set group =>   3
Atom   8H    basis set group =>   3
Atom   9H    basis set group =>   3
Atom  10H    basis set group =>   3
Atom  11H    basis set group =>   3
Atom  12H    basis set group =>   3
Atom  13H    basis set group =>   3
Atom  14O    basis set group =>   2
Atom  15H    basis set group =>   3


           ************************************************************
           *        Program running with 6 parallel MPI-processes     *
           *              working on a common directory               *
           ************************************************************
------------------------------------------------------------------------------
                             ORCA STARTUP CALCULATIONS
                           -- RI-GTO INTEGRALS CHOSEN --
------------------------------------------------------------------------------
------------------------------------------------------------------------------
                   ___                                                        
                  /   \      - P O W E R E D   B Y -                         
                 /     \                                                     
                 |  |  |   _    _      __       _____    __    __             
                 |  |  |  | |  | |    /  \     |  _  \  |  |  /  |          
                  \  \/   | |  | |   /    \    | | | |  |  | /  /          
                 / \  \   | |__| |  /  /\  \   | |_| |  |  |/  /          
                |  |  |   |  __  | /  /__\  \  |    /   |      \           
                |  |  |   | |  | | |   __   |  |    \   |  |\   \          
                \     /   | |  | | |  |  |  |  | |\  \  |  | \   \       
                 \___/    |_|  |_| |__|  |__|  |_| \__\ |__|  \__/        
                                                                              
                      - O R C A' S   B I G   F R I E N D -                    
                                      &                                       
                       - I N T E G R A L  F E E D E R -                       
                                                                              
 v1 FN, 2020, v2 2021, v3 2022-2024                                           
------------------------------------------------------------------------------


----------------------
SHARK INTEGRAL PACKAGE
----------------------

Number of atoms                             ...     16
Number of basis functions                   ...    134
Number of shells                            ...     66
Maximum angular momentum                    ...      2
Integral batch strategy                     ... SHARK/LIBINT Hybrid
RI-J (if used) integral strategy            ... SPLIT-RIJ (Revised 2003 algorithm where possible)
Printlevel                                  ...      1
Contraction scheme used                     ... SEGMENTED contraction
Prescreening option                         ... SCHWARTZ
   Thresh                                   ... 2.500e-11
   Tcut                                     ... 2.500e-12
   Tpresel                                  ... 2.500e-12 
Coulomb Range Separation                    ... NOT USED
Exchange Range Separation                   ... NOT USED
Multipole approximations                    ... NOT USED
Finite Nucleus Model                        ... NOT USED
CABS basis                                  ... NOT available
Auxiliary Coulomb fitting basis             ... AVAILABLE
   # of basis functions in Aux-J            ...    404
   # of shells in Aux-J                     ...    140
   Maximum angular momentum in Aux-J        ...      4
Auxiliary J/K fitting basis                 ... NOT available
Auxiliary Correlation fitting basis         ... NOT available
Auxiliary 'external' fitting basis          ... NOT available

Checking pre-screening integrals            ... done (  0.0 sec) Dimension = 66
   => SHARK Basis and OBASIS are compatible. Storing Pre-screening
Shell pair information
Shell pair cut-off parameter TPreSel        ...   2.5e-12
Total number of shell pairs                 ...      2211
Shell pairs after pre-screening             ...      2065
Total number of primitive shell pairs       ...      7611
Primitive shell pairs kept                  ...      5401
          la=0 lb=0:    705 shell pairs
          la=1 lb=0:    779 shell pairs
          la=1 lb=1:    230 shell pairs
          la=2 lb=0:    214 shell pairs
          la=2 lb=1:    118 shell pairs
          la=2 lb=2:     19 shell pairs

Checking whether 4 symmetric matrices of dimension 134 fit in memory
:Max Core in MB      =   4096.00
 MB in use           =      5.93
 MB left             =   4090.07
 MB needed           =      0.28
 Data fit in memory  = YES
Calculating RI/J V-Matrix + Cholesky decomp.... done (  0.0 sec)
Calculating Nuclear repulsion               ... done (  0.0 sec) ENN=    246.734920922441 Eh

Diagonalization of the overlap matrix:
Smallest eigenvalue                        ... 1.441e-03
Time for diagonalization                   ...    0.002 sec
Threshold for overlap eigenvalues          ... 1.000e-07
Number of eigenvalues below threshold      ... 0
Time for construction of square roots      ...    0.001 sec
Total time needed                          ...    0.004 sec

-------------------
DFT GRID GENERATION
-------------------

General Integration Accuracy     IntAcc      ... 4.388
Radial Grid Type                 RadialGrid  ... OptM3 with GC (2021)
Angular Grid (max. ang.)         AngularGrid ... 4 (Lebedev-302)
Angular grid pruning method      GridPruning ... 4 (adaptive)
Weight generation scheme         WeightScheme... mBecke (2022)
Basis function cutoff            BFCut       ... 1.0000e-11
Integration weight cutoff        WCut        ... 1.0000e-14
Partially contracted basis set               ... off
Rotationally invariant grid construction     ... off
Angular grids for H and He will be reduced by one unit

Total number of grid points                  ...    68595
Total number of batches                      ...     1079
Average number of points per batch           ...       63
Average number of grid points per atom       ...     4287

--------------------
COSX GRID GENERATION
--------------------

GRIDX 1
-------
General Integration Accuracy     IntAcc      ... 3.816
Radial Grid Type                 RadialGrid  ... OptM3 with GC (2021)
Angular Grid (max. ang.)         AngularGrid ... 1 (Lebedev-50)
Angular grid pruning method      GridPruning ... 4 (adaptive)
Weight generation scheme         WeightScheme... mBecke (2022)
Basis function cutoff            BFCut       ... 1.0000e-11
Integration weight cutoff        WCut        ... 1.0000e-14
Partially contracted basis set               ... on
Rotationally invariant grid construction     ... off
Angular grids for H and He will be reduced by one unit

Total number of grid points                  ...     8814
Total number of batches                      ...       78
Average number of points per batch           ...      113
Average number of grid points per atom       ...      551
UseSFitting                                  ... on

GRIDX 2
-------
General Integration Accuracy     IntAcc      ... 4.020
Radial Grid Type                 RadialGrid  ... OptM3 with GC (2021)
Angular Grid (max. ang.)         AngularGrid ... 2 (Lebedev-110)
Angular grid pruning method      GridPruning ... 4 (adaptive)
Weight generation scheme         WeightScheme... mBecke (2022)
Basis function cutoff            BFCut       ... 1.0000e-11
Integration weight cutoff        WCut        ... 1.0000e-14
Partially contracted basis set               ... on
Rotationally invariant grid construction     ... off
Angular grids for H and He will be reduced by one unit

Total number of grid points                  ...    18557
Total number of batches                      ...      153
Average number of points per batch           ...      121
Average number of grid points per atom       ...     1160
UseSFitting                                  ... on

GRIDX 3
-------
General Integration Accuracy     IntAcc      ... 4.338
Radial Grid Type                 RadialGrid  ... OptM3 with GC (2021)
Angular Grid (max. ang.)         AngularGrid ... 3 (Lebedev-194)
Angular grid pruning method      GridPruning ... 4 (adaptive)
Weight generation scheme         WeightScheme... mBecke (2022)
Basis function cutoff            BFCut       ... 1.0000e-11
Integration weight cutoff        WCut        ... 1.0000e-14
Partially contracted basis set               ... on
Rotationally invariant grid construction     ... off
Angular grids for H and He will be reduced by one unit

Total number of grid points                  ...    40593
Total number of batches                      ...      327
Average number of points per batch           ...      124
Average number of grid points per atom       ...     2537
UseSFitting                                  ... on
Grids setup in   0.9 sec
Initializing property integral containers    ... done (  0.0 sec)

SHARK setup successfully completed in   1.0 seconds

Maximum memory used throughout the entire STARTUP-calculation: 18.9 MB


           ************************************************************
           *        Program running with 6 parallel MPI-processes     *
           *              working on a common directory               *
           ************************************************************
-------------------------------------------------------------------------------
                                 ORCA GUESS
                   Start orbitals & Density for SCF / CASSCF
-------------------------------------------------------------------------------

------------
SCF SETTINGS
------------
Hamiltonian:
 Density Functional     Method          .... DFT(GTOs)
 Exchange Functional    Exchange        .... B88
   X-Alpha parameter    XAlpha          ....  0.666667
   Becke's b parameter  XBeta           ....  0.004200
 Correlation Functional Correlation     .... LYP
 LDA part of GGA corr.  LDAOpt          .... VWN-5
 Gradients option       PostSCFGGA      .... off
 Hybrid DFT is turned on
   Fraction HF Exchange ScalHFX         ....  0.200000
   Scaling of DF-GGA-X  ScalDFX         ....  0.720000
   Scaling of DF-GGA-C  ScalDFC         ....  0.810000
   Scaling of DF-LDA-C  ScalLDAC        ....  1.000000
   Perturbative correction              ....  0.000000
   NL short-range parameter             ....  4.800000
 RI-approximation to the Coulomb term is turned on
   Number of AuxJ basis functions       .... 404
   RIJ-COSX (HFX calculated with COS-X)).... on


General Settings:
 Integral files         IntName         .... orca
 Hartree-Fock type      HFTyp           .... RHF
 Total Charge           Charge          ....    0
 Multiplicity           Mult            ....    1
 Number of Electrons    NEL             ....   50
 Basis Dimension        Dim             ....  134
 Nuclear Repulsion      ENuc            ....    246.7349209224 Eh

Convergence Acceleration:
 AO-DIIS                CNVDIIS         .... on
   Start iteration      DIISMaxIt       ....    12
   Startup error        DIISStart       ....  0.200000
   # of expansion vecs  DIISMaxEq       ....     5
   Bias factor          DIISBfac        ....   1.050
   Max. coefficient     DIISMaxC        ....  10.000
 MO-DIIS                CNVKDIIS        .... off
 Trust-Rad. Augm. Hess. CNVTRAH         .... auto
   Auto Start mean grad. ratio tolernc. ....  1.125000
   Auto Start start iteration           ....    50
   Auto Start num. interpolation iter.  ....    10
   Max. Number of Micro iterations      ....    24
   Max. Number of Macro iterations      .... Maxiter - #DIIS iter
   Number of Davidson start vectors     ....     2
   Converg. threshold    (grad. norm)   ....   1.000e-05
   Grad. Scal. Fac. for Micro threshold ....   0.100
   Minimum threshold for Micro iter.    ....   1.000e-02
   NR start threshold (gradient norm)   ....   1.000e-04
   Initial trust radius                 ....   0.400
   Minimum AH scaling param. (alpha)    ....   1.000
   Maximum AH scaling param. (alpha)    .... 1000.000
   Quad. conv. algorithm                .... NR
   White noise on init. David. guess    .... on
   Maximum white noise                  ....   0.010
   Pseudo random numbers                .... off
   Inactive MOs                         .... canonical
   Orbital update algorithm             .... Taylor
   Preconditioner                       .... Diag
   Full preconditioner red. dimension   ....   250
 SOSCF                 CNVSOSCF           .... on
   Start iteration     SOSCFMaxIt         ....   150
   Startup grad/error  SOSCFStart         ....  0.003300
   Hessian update      SOSCFHessUp        .... L-BFGS
   Autom. constraints  SOSCFAutoConstrain .... off
 Level Shifting         CNVShift        .... on
   Level shift para.    LevelShift      ....    0.2500
   Turn off err/grad.   ShiftErr        ....    0.0010
 Zerner damping         CNVZerner       .... off
 Static damping         CNVDamp         .... on
   Fraction old density DampFac         ....    0.7000
   Max. Damping (<1)    DampMax         ....    0.9800
   Min. Damping (>=0)   DampMin         ....    0.0000
   Turn off err/grad.   DampErr         ....    0.1000

SCF Procedure:
 Maximum # iterations   MaxIter         ....   125
 SCF integral mode      SCFMode         .... Direct
   Integral package                     .... SHARK and LIBINT hybrid scheme
 Reset frequency        DirectResetFreq ....    20
 Integral Threshold     Thresh          ....  2.500e-11 Eh
 Primitive CutOff       TCut            ....  2.500e-12 Eh

Convergence Tolerance:
 Convergence Check Mode ConvCheckMode   .... Total+1el-Energy
 Convergence forced     ConvForced      .... 0
 Energy Change          TolE            ....  1.000e-08 Eh
 1-El. energy change                    ....  1.000e-05 Eh
 Orbital Gradient       TolG            ....  1.000e-05
 Orbital Rotation angle TolX            ....  1.000e-05
 DIIS Error             TolErr          ....  5.000e-07

------------------------------
INITIAL GUESS: MODEL POTENTIAL
------------------------------
Loading Hartree-Fock densities                     ... done
Calculating cut-offs                               ... done
Initializing the effective Hamiltonian             ... done
Setting up the integral package (SHARK)            ... done
Starting the Coulomb interaction                   ... done (   0.0 sec)
Making the grid                                    ... done (   0.1 sec)
Mapping shells                                     ... done
Starting the XC term evaluation                    ... done (   0.0 sec)
  promolecular density results
     # of electrons  =     49.998234631
     EX              =    -39.911373222
     EC              =     -1.659158687
     EX+EC           =    -41.570531909
Transforming the Hamiltonian                       ... done (   0.0 sec)
Diagonalizing the Hamiltonian                      ... done (   0.0 sec)
Back transforming the eigenvectors                 ... done (   0.0 sec)
Now organizing SCF variables                       ... done
                      ------------------
                      INITIAL GUESS DONE (   0.2 sec)
                      ------------------
             **** ENERGY FILE WAS UPDATED (orca.en.tmp) ****
Finished Guess after   0.3 sec
Maximum memory used throughout the entire GUESS-calculation: 8.5 MB


           ************************************************************
           *        Program running with 6 parallel MPI-processes     *
           *              working on a common directory               *
           ************************************************************

-------------------------------------------------------------------------------------------
                                      ORCA LEAN-SCF
                              memory conserving SCF solver
-------------------------------------------------------------------------------------------

----------------------------------------D-I-I-S--------------------------------------------
Iteration    Energy (Eh)           Delta-E    RMSDP     MaxDP     DIISErr   Damp  Time(sec)
-------------------------------------------------------------------------------------------
               ***  Starting incremental Fock matrix formation  ***
    1    -308.1505878471436972     0.00e+00  9.87e-03  7.46e-02  2.38e-01  0.700   0.7
    2    -308.2676180425686425    -1.17e-01  6.81e-03  4.66e-02  1.05e-01  0.700   0.5
                               ***Turning on AO-DIIS***
    3    -308.3138035743136243    -4.62e-02  2.60e-03  1.61e-02  3.81e-02  0.700   0.5
    4    -308.3405829468538286    -2.68e-02  4.16e-03  2.31e-02  1.82e-02  0.000   0.5
    5    -308.3991384370611968    -5.86e-02  9.46e-04  5.25e-03  7.45e-03  0.000   0.5
                              *** Initializing SOSCF ***
---------------------------------------S-O-S-C-F--------------------------------------
Iteration    Energy (Eh)           Delta-E    RMSDP     MaxDP     MaxGrad    Time(sec)
--------------------------------------------------------------------------------------
    6    -308.3994763359655735    -3.38e-04  3.50e-04  1.78e-03  1.81e-03     0.5
               *** Restarting incremental Fock matrix formation ***
    7    -308.3994560806930849     2.03e-05  2.44e-04  1.47e-03  3.80e-04     0.8
    8    -308.3994560188092464     6.19e-08  8.67e-05  1.06e-03  5.23e-04     0.6
    9    -308.3994597447332353    -3.73e-06  5.73e-05  4.18e-04  1.68e-04     0.6
   10    -308.3994596291259995     1.16e-07  2.62e-05  2.06e-04  1.24e-04     0.6
   11    -308.3994599781468651    -3.49e-07  9.96e-06  8.26e-05  2.03e-05     0.6
   12    -308.3994599711736555     6.97e-09  5.70e-06  5.21e-05  3.32e-05     0.5
                 **** Energy Check signals convergence ****

               *****************************************************
               *                     SUCCESS                       *
               *           SCF CONVERGED AFTER  12 CYCLES          *
               *****************************************************

Recomputing exchange energy using gridx3       ... done (    1.181 sec)
Old exchange energy                            :     -8.117426312 Eh
New exchange energy                            :     -8.117374444 Eh
Exchange energy change after final integration :      0.000051868 Eh
Total energy after final integration           :   -308.399408118 Eh
             **** ENERGY FILE WAS UPDATED (orca.en.tmp) ****

----------------
TOTAL SCF ENERGY
----------------

Total Energy       :       -308.39940811833708 Eh           -8391.97453 eV

Components:
Nuclear Repulsion  :        246.73492092244120 Eh            6713.99853 eV
Electronic Energy  :       -555.13438090834563 Eh          -15105.97448 eV
One Electron Energy:       -908.52410420957347 Eh          -24722.19773 eV
Two Electron Energy:        353.38972330122783 Eh            9616.22325 eV

Virial components:
Potential Energy   :       -613.97334368718759 Eh          -16707.06405 eV
Kinetic Energy     :        305.57393556885052 Eh            8315.08952 eV
Virial Ratio       :          2.00924644487177

DFT components:
N(Alpha)           :       24.999998852449 electrons
N(Beta)            :       24.999998852449 electrons
N(Total)           :       49.999997704897 electrons
E(X)               :      -32.271698918943 Eh       
E(C)               :       -1.966368048744 Eh       
E(XC)              :      -34.238066967686 Eh       

---------------
SCF CONVERGENCE
---------------

  Last Energy change         ...   -6.9732e-09  Tolerance :   1.0000e-08
  Last MAX-Density change    ...    5.2093e-05  Tolerance :   1.0000e-07
  Last RMS-Density change    ...    5.6964e-06  Tolerance :   5.0000e-09
  Last DIIS Error            ...    1.8100e-03  Tolerance :   5.0000e-07
  Last Orbital Gradient      ...    3.3164e-05  Tolerance :   1.0000e-05
  Last Orbital Rotation      ...    2.3966e-05  Tolerance :   1.0000e-05


----------------
ORBITAL ENERGIES
----------------

  NO   OCC          E(Eh)            E(eV) 
   0   2.0000     -19.167497      -521.5741 
   1   2.0000     -19.108081      -519.9573 
   2   2.0000     -10.216061      -277.9931 
   3   2.0000     -10.177382      -276.9407 
   4   2.0000     -10.171562      -276.7823 
   5   2.0000     -10.153177      -276.2820 
   6   2.0000      -1.046346       -28.4725 
   7   2.0000      -0.964640       -26.2492 
   8   2.0000      -0.758843       -20.6492 
   9   2.0000      -0.701107       -19.0781 
  10   2.0000      -0.645600       -17.5677 
  11   2.0000      -0.583578       -15.8800 
  12   2.0000      -0.495237       -13.4761 
  13   2.0000      -0.466282       -12.6882 
  14   2.0000      -0.450173       -12.2498 
  15   2.0000      -0.433784       -11.8039 
  16   2.0000      -0.409077       -11.1315 
  17   2.0000      -0.391292       -10.6476 
  18   2.0000      -0.388646       -10.5756 
  19   2.0000      -0.374086       -10.1794 
  20   2.0000      -0.357508        -9.7283 
  21   2.0000      -0.334772        -9.1096 
  22   2.0000      -0.331627        -9.0240 
  23   2.0000      -0.270394        -7.3578 
  24   2.0000      -0.201061        -5.4712 
  25   0.0000       0.033548         0.9129 
  26   0.0000       0.044272         1.2047 
  27   0.0000       0.075162         2.0453 
  28   0.0000       0.101778         2.7695 
  29   0.0000       0.112971         3.0741 
  30   0.0000       0.125896         3.4258 
  31   0.0000       0.146820         3.9952 
  32   0.0000       0.149978         4.0811 
  33   0.0000       0.153704         4.1825 
  34   0.0000       0.164744         4.4829 
  35   0.0000       0.202166         5.5012 
*Only the first 10 virtual orbitals were printed.

                    ********************************
                    * MULLIKEN POPULATION ANALYSIS *
                    ********************************

-----------------------
MULLIKEN ATOMIC CHARGES
-----------------------
   0 C :    0.078571
   1 C :   -0.135175
   2 C :    0.049691
   3 C :    0.058518
   4 O :   -0.462661
   5 H :    0.011880
   6 H :   -0.004436
   7 H :    0.012147
   8 H :    0.000279
   9 H :    0.014118
  10 H :    0.016428
  11 H :    0.233998
  12 H :   -0.021442
  13 H :    0.237247
  14 O :   -0.268647
  15 H :    0.179483
Sum of atomic charges:   -0.0000000

--------------------------------
MULLIKEN REDUCED ORBITAL CHARGES
--------------------------------
  0 C s       :     2.925859  s :     2.925859
      pz      :     0.992965  p :     2.965603
      px      :     0.988199
      py      :     0.984439
      dz2     :     0.006625  d :     0.029966
      dxz     :     0.006946
      dyz     :     0.004264
      dx2y2   :     0.008597
      dxy     :     0.003535

  1 C s       :     3.178234  s :     3.178234
      pz      :     1.047244  p :     2.924378
      px      :     0.966188
      py      :     0.910945
      dz2     :     0.004568  d :     0.032563
      dxz     :     0.005861
      dyz     :     0.004498
      dx2y2   :     0.009435
      dxy     :     0.008201

  2 C s       :     3.058520  s :     3.058520
      pz      :     0.957325  p :     2.817671
      px      :     0.857385
      py      :     1.002962
      dz2     :     0.009910  d :     0.074118
      dxz     :     0.013445
      dyz     :     0.010784
      dx2y2   :     0.021156
      dxy     :     0.018823

  3 C s       :     2.929576  s :     2.929576
      pz      :     0.999841  p :     2.984042
      px      :     0.992905
      py      :     0.991295
      dz2     :     0.004875  d :     0.027864
      dxz     :     0.005129
      dyz     :     0.006194
      dx2y2   :     0.007320
      dxy     :     0.004347

  4 O s       :     3.776457  s :     3.776457
      pz      :     1.569731  p :     4.675451
      px      :     1.359969
      py      :     1.745751
      dz2     :     0.001407  d :     0.010753
      dxz     :     0.002466
      dyz     :     0.002015
      dx2y2   :     0.001893
      dxy     :     0.002971

  5 H s       :     0.964981  s :     0.964981
      pz      :     0.012091  p :     0.023140
      px      :     0.004399
      py      :     0.006650

  6 H s       :     0.980980  s :     0.980980
      pz      :     0.005110  p :     0.023456
      px      :     0.004584
      py      :     0.013762

  7 H s       :     0.964723  s :     0.964723
      pz      :     0.007040  p :     0.023130
      px      :     0.010235
      py      :     0.005856

  8 H s       :     0.976100  s :     0.976100
      pz      :     0.007274  p :     0.023621
      px      :     0.011036
      py      :     0.005311

  9 H s       :     0.962504  s :     0.962504
      pz      :     0.007334  p :     0.023378
      px      :     0.010933
      py      :     0.005111

 10 H s       :     0.960178  s :     0.960178
      pz      :     0.012214  p :     0.023394
      px      :     0.005278
      py      :     0.005902

 11 H s       :     0.685730  s :     0.685730
      pz      :     0.015341  p :     0.080272
      px      :     0.046536
      py      :     0.018395

 12 H s       :     0.998611  s :     0.998611
      pz      :     0.005013  p :     0.022831
      px      :     0.004166
      py      :     0.013652

 13 H s       :     0.682825  s :     0.682825
      pz      :     0.020124  p :     0.079928
      px      :     0.039519
      py      :     0.020285

 14 O s       :     3.702468  s :     3.702468
      pz      :     1.543884  p :     4.556720
      px      :     1.356728
      py      :     1.656108
      dz2     :     0.000434  d :     0.009460
      dxz     :     0.001450
      dyz     :     0.002908
      dx2y2   :     0.001222
      dxy     :     0.003445

 15 H s       :     0.751047  s :     0.751047
      pz      :     0.020090  p :     0.069470
      px      :     0.026654
      py      :     0.022726



                     *******************************
                     * LOEWDIN POPULATION ANALYSIS *
                     *******************************

----------------------
LOEWDIN ATOMIC CHARGES
----------------------
   0 C :   -0.055930
   1 C :   -0.104137
   2 C :    0.013469
   3 C :   -0.068673
   4 O :   -0.219703
   5 H :    0.026751
   6 H :    0.020561
   7 H :    0.026874
   8 H :    0.027109
   9 H :    0.028347
  10 H :    0.029213
  11 H :    0.101724
  12 H :    0.021216
  13 H :    0.103799
  14 O :   -0.041485
  15 H :    0.090868

-------------------------------
LOEWDIN REDUCED ORBITAL CHARGES
-------------------------------
  0 C s       :     2.833528  s :     2.833528
      pz      :     1.051926  p :     3.146627
      px      :     1.036597
      py      :     1.058104
      dz2     :     0.016475  d :     0.075775
      dxz     :     0.018107
      dyz     :     0.010559
      dx2y2   :     0.022320
      dxy     :     0.008315

  1 C s       :     2.875471  s :     2.875471
      pz      :     1.054505  p :     3.144608
      px      :     1.043386
      py      :     1.046717
      dz2     :     0.009740  d :     0.084059
      dxz     :     0.014442
      dyz     :     0.010581
      dx2y2   :     0.026470
      dxy     :     0.022827

  2 C s       :     2.859306  s :     2.859306
      pz      :     0.970274  p :     2.954941
      px      :     0.950238
      py      :     1.034428
      dz2     :     0.020789  d :     0.172285
      dxz     :     0.030891
      dyz     :     0.023021
      dx2y2   :     0.052375
      dxy     :     0.045210

  3 C s       :     2.840385  s :     2.840385
      pz      :     1.061773  p :     3.155856
      px      :     1.062674
      py      :     1.031409
      dz2     :     0.012636  d :     0.072432
      dxz     :     0.013422
      dyz     :     0.015378
      dx2y2   :     0.020175
      dxy     :     0.010822

  4 O s       :     3.514837  s :     3.514837
      pz      :     1.576660  p :     4.683576
      px      :     1.368860
      py      :     1.738056
      dz2     :     0.002878  d :     0.021289
      dxz     :     0.005725
      dyz     :     0.003057
      dx2y2   :     0.004131
      dxy     :     0.005499

  5 H s       :     0.910025  s :     0.910025
      pz      :     0.033989  p :     0.063224
      px      :     0.012142
      py      :     0.017093

  6 H s       :     0.914908  s :     0.914908
      pz      :     0.012798  p :     0.064531
      px      :     0.012578
      py      :     0.039155

  7 H s       :     0.909918  s :     0.909918
      pz      :     0.018836  p :     0.063208
      px      :     0.029811
      py      :     0.014561

  8 H s       :     0.906640  s :     0.906640
      pz      :     0.019208  p :     0.066251
      px      :     0.030723
      py      :     0.016320

  9 H s       :     0.907068  s :     0.907068
      pz      :     0.018496  p :     0.064585
      px      :     0.030710
      py      :     0.015379

 10 H s       :     0.906436  s :     0.906436
      pz      :     0.034467  p :     0.064352
      px      :     0.012231
      py      :     0.017653

 11 H s       :     0.651111  s :     0.651111
      pz      :     0.040040  p :     0.247165
      px      :     0.149714
      py      :     0.057411

 12 H s       :     0.910183  s :     0.910183
      pz      :     0.016525  p :     0.068602
      px      :     0.013013
      py      :     0.039064

 13 H s       :     0.649495  s :     0.649495
      pz      :     0.050554  p :     0.246706
      px      :     0.131995
      py      :     0.064157

 14 O s       :     3.454448  s :     3.454448
      pz      :     1.538965  p :     4.569223
      px      :     1.360370
      py      :     1.669887
      dz2     :     0.001101  d :     0.017814
      dxz     :     0.004132
      dyz     :     0.004397
      dx2y2   :     0.001956
      dxy     :     0.006229

 15 H s       :     0.732060  s :     0.732060
      pz      :     0.051445  p :     0.177072
      px      :     0.062996
      py      :     0.062631



                      *****************************
                      * MAYER POPULATION ANALYSIS *
                      *****************************

  NA   - Mulliken gross atomic population
  ZA   - Total nuclear charge
  QA   - Mulliken gross atomic charge
  VA   - Mayer's total valence
  BVA  - Mayer's bonded valence
  FA   - Mayer's free valence

  ATOM       NA         ZA         QA         VA         BVA        FA
  0 C      5.9214     6.0000     0.0786     3.9291     3.9291    -0.0000
  1 C      6.1352     6.0000    -0.1352     3.9937     3.9937    -0.0000
  2 C      5.9503     6.0000     0.0497     4.2174     4.2174    -0.0000
  3 C      5.9415     6.0000     0.0585     3.9331     3.9331    -0.0000
  4 O      8.4627     8.0000    -0.4627     2.0497     2.0497    -0.0000
  5 H      0.9881     1.0000     0.0119     0.9808     0.9808    -0.0000
  6 H      1.0044     1.0000    -0.0044     0.9956     0.9956    -0.0000
  7 H      0.9879     1.0000     0.0121     0.9809     0.9809    -0.0000
  8 H      0.9997     1.0000     0.0003     0.9989     0.9989     0.0000
  9 H      0.9859     1.0000     0.0141     0.9964     0.9964     0.0000
 10 H      0.9836     1.0000     0.0164     0.9902     0.9902    -0.0000
 11 H      0.7660     1.0000     0.2340     1.0282     1.0282    -0.0000
 12 H      1.0214     1.0000    -0.0214     1.0027     1.0027    -0.0000
 13 H      0.7628     1.0000     0.2372     1.0221     1.0221     0.0000
 14 O      8.2686     8.0000    -0.2686     2.2422     2.2422    -0.0000
 15 H      0.8205     1.0000     0.1795     1.0101     1.0101     0.0000

  Mayer bond orders larger than 0.100000
B(  0-C ,  1-C ) :   1.0777 B(  0-C ,  5-H ) :   0.9509 B(  0-C ,  6-H ) :   0.9588 
B(  0-C ,  7-H ) :   0.9506 B(  1-C ,  2-C ) :   1.8637 B(  1-C , 12-H ) :   0.9390 
B(  2-C ,  3-C ) :   1.0920 B(  2-C ,  4-O ) :   1.1054 B(  3-C ,  8-H ) :   0.9437 
B(  3-C ,  9-H ) :   0.9426 B(  3-C , 10-H ) :   0.9427 B(  4-O , 11-H ) :   0.4007 
B(  4-O , 13-H ) :   0.4029 B( 11-H , 14-O ) :   0.5877 B( 13-H , 14-O ) :   0.5839 
B( 14-O , 15-H ) :   0.9803 

-------
TIMINGS
-------

Total SCF time: 0 days 0 hours 0 min 8 sec 

Total time                  ....       8.621 sec
Sum of individual times     ....       8.064 sec  ( 93.5%)

SCF preparation             ....       0.173 sec  (  2.0%)
Fock matrix formation       ....       7.642 sec  ( 88.6%)
  Startup                   ....       0.005 sec  (  0.1% of F)
  Split-RI-J                ....       0.647 sec  (  8.5% of F)
  Chain of spheres X        ....       5.869 sec  ( 76.8% of F)
  XC integration            ....       1.486 sec  ( 19.4% of F)
    XC Preparation          ....       0.000 sec  (  0.0% of XC)
    Basis function eval.    ....       0.490 sec  ( 33.0% of XC)
    Density eval.           ....       0.263 sec  ( 17.7% of XC)
    XC-Functional eval.     ....       0.099 sec  (  6.7% of XC)
    XC-Potential eval.      ....       0.286 sec  ( 19.3% of XC)
Diagonalization             ....       0.000 sec  (  0.0%)
Density matrix formation    ....       0.032 sec  (  0.4%)
Total Energy calculation    ....       0.017 sec  (  0.2%)
Population analysis         ....       0.021 sec  (  0.2%)
Orbital Transformation      ....       0.019 sec  (  0.2%)
Orbital Orthonormalization  ....       0.000 sec  (  0.0%)
DIIS solution               ....       0.093 sec  (  1.1%)
SOSCF solution              ....       0.068 sec  (  0.8%)
Finished LeanSCF after   8.6 sec

Maximum memory used throughout the entire LEANSCF-calculation: 11.7 MB


-------------------------------------------------------------------------------
                          DFT DISPERSION CORRECTION                            
                                                                               
                              DFTD3 V3.1  Rev 1                                
                          USING Becke-Johnson damping                          
-------------------------------------------------------------------------------
The B3LYP functional is recognized
Active option DFTDOPT                   ...         4   

molecular C6(AA) [au] = 1807.364892 


            DFT-D V3
 parameters
 s6 scaling factor         :     1.0000 
 a1 scaling factor         :     0.3981 
 s8 scaling factor         :     1.9889 
 a2 scaling factor         :     4.4211 
 ad hoc parameters k1-k3   :    16.0000     1.3333    -4.0000 

 Edisp/kcal,au: -11.538628780363  -0.018387973451 
 E6   /kcal   :  -5.733710808 
 E8   /kcal   :  -5.804917973 
 % E8         :  50.308559908 

-------------------------   ----------------
Dispersion correction           -0.018387973
-------------------------   ----------------


-------------------------   --------------------
FINAL SINGLE POINT ENERGY      -308.417796091788
-------------------------   --------------------



           ************************************************************
           *        Program running with 6 parallel MPI-processes     *
           *              working on a common directory               *
           ************************************************************
------------------------------------------------------------------------------
                         ORCA SCF GRADIENT CALCULATION
------------------------------------------------------------------------------

Nuc. rep. gradient        (SHARK) ... done (  0.0 sec)
HCore & Overlap gradient  (SHARK) ... done (  0.0 sec)
Split-RIJ-J gradient      (SHARK) ... done (  0.2 sec)
done (  4.0 sec)
XC gradient                       ... done (  0.8 sec)
Dispersion correction             ... done (  0.0 sec)

-------------------
DISPERSION GRADIENT
-------------------

   1   C   :    0.000381663    0.000191847   -0.000194047
   2   C   :    0.000241220    0.000385285   -0.000082174
   3   C   :   -0.000039812    0.000038483    0.000058690
   4   C   :   -0.000010001   -0.000428572    0.000000331
   5   O   :   -0.001072176   -0.000414376    0.000344669
   6   H   :    0.000154024    0.000075322   -0.000155718
   7   H   :    0.000238603   -0.000018021   -0.000134827
   8   H   :    0.000218285    0.000064542   -0.000039161
   9   H   :    0.000011040   -0.000289998   -0.000029602
  10   H   :   -0.000042908   -0.000274255   -0.000114917
  11   H   :    0.000059348   -0.000286729    0.000090515
  12   H   :    0.000051328    0.000367172   -0.000220383
  13   H   :    0.000022965    0.000229653    0.000013211
  14   H   :    0.000256547    0.000237830    0.000244603
  15   O   :   -0.000300849    0.000113930    0.000144738
  16   H   :   -0.000169278    0.000007888    0.000074073

Difference to translation invariance:
           :    0.0000000000    0.0000000000    0.0000000000

Difference to rotation invariance:
           :   -0.0000000000    0.0000000000    0.0000000000

Norm of the Dispersion gradient    ...    0.0017595138
RMS gradient                       ...    0.0002539639
MAX gradient                       ...    0.0010721758

------------------
CARTESIAN GRADIENT
------------------

   1   C   :   -0.000104158   -0.000086193   -0.000102371
   2   C   :    0.000039978    0.000062409   -0.000010517
   3   C   :    0.000077102   -0.000145903    0.000076077
   4   C   :    0.000058425    0.000057781    0.000172328
   5   O   :    0.000131861    0.000119152    0.000134499
   6   H   :   -0.000044722    0.000002214    0.000063389
   7   H   :   -0.000016618   -0.000019638   -0.000044147
   8   H   :    0.000006595    0.000072384    0.000013297
   9   H   :   -0.000089929   -0.000067442   -0.000018722
  10   H   :    0.000035681   -0.000003043   -0.000000639
  11   H   :   -0.000030707    0.000065654   -0.000079170
  12   H   :    0.000106908    0.000079186    0.000027950
  13   H   :   -0.000010286   -0.000007135   -0.000004729
  14   H   :    0.000062368   -0.000056216   -0.000023941
  15   O   :   -0.000187093   -0.000033857   -0.000171329
  16   H   :   -0.000035405   -0.000039352   -0.000031976

Difference to translation invariance:
           :   -0.0000000001   -0.0000000000    0.0000000000

Difference to rotation invariance:
           :   -0.0001630013   -0.0001460235   -0.0001711731

Norm of the Cartesian gradient     ...    0.0005375881
RMS gradient                       ...    0.0000775942
MAX gradient                       ...    0.0001870932

-------
TIMINGS
-------

Total SCF gradient time     ....        5.125 sec

Densities                   ....       0.000 sec  (  0.0%)
One electron gradient       ....       0.042 sec  (  0.8%)
RI-J Coulomb gradient       ....       0.241 sec  (  4.7%)
COSX gradient               ....       3.985 sec  ( 77.8%)
XC gradient                 ....       0.820 sec  ( 16.0%)

Maximum memory used throughout the entire SCFGRAD-calculation: 28.4 MB


           ************************************************************
           *        Program running with 6 parallel MPI-processes     *
           *              working on a common directory               *
           ************************************************************

------------------------------------------------------------------------------
                              ORCA PROPERTY CALCULATIONS
------------------------------------------------------------------------------

GBWName                                 ... orca.gbw
Number of atoms                         ...     16
Number of basis functions               ...    134
Max core memory                         ...   4096 MB

Electric properties:
Dipole moment                           ... YES
Quadrupole moment                       ...  NO
Static polarizability (Dipole/Dipole)   ...  NO
Static polarizability (Dipole/Quad.)    ...  NO
Static polarizability (Quad./Quad.)     ...  NO
Static polarizability (Velocity)        ...  NO
Static hyperpolarizability              ...  NO

Atomic electric properties:
Dipole moment                           ...  NO
Quadrupole moment                       ...  NO
Static polarizability                   ...  NO

Choice of electric origin               ... Center of mass
Position of electric origin             ...    -0.513164     0.234674     0.294027

General magnetic properties:
Magnetizability                         ...  NO

EPR properties:
g-Tensor (aka g-matrix)                 ...  NO
Zero-Field splitting spin-orbit         ...  NO
Zero-field splitting spin-spin          ...  NO
Hyperfine couplings                     ...  NO (   0 nuclei)
Quadrupole couplings                    ...  NO (   0 nuclei)
Contact density                         ...  NO (   0 nuclei)

NMR properties:
Chemical shifts                         ...  NO (   0 nuclei)
Spin-rotation constants                 ...  NO (   0 nuclei)
Spin-spin couplings                     ...  NO (   0 nuclei,    0 pairs)

Choice of magnetic origin               ... GIAO
Position of magnetic origin             ...     0.000000     0.000000     0.000000

Properties with geometric perturbations:
SCF Hessian                             ...  NO
IR spectrum                             ...  NO
VCD spectrum                            ...  NO
X-ray spectroscopy properties:
SCF XES/XAS/RIXS spectra                ...  NO

SCF SOC stabilization energy            ...  NO
Diagonal Born-Oppenheimer correction    ...  NO

-------------
DIPOLE MOMENT
-------------

Method             : SCF
Type of density    : Electron Density
Multiplicity       :   1
Irrep              :   0
Energy             :  -308.3994081183370781 Eh
Basis              : AO
                                X                 Y                 Z
Electronic contribution:     -3.912220330       1.880260054       2.260175708
Nuclear contribution   :      3.229011881      -2.010110338      -1.963487285
                        -----------------------------------------
Total Dipole Moment    :     -0.683208449      -0.129850284       0.296688423
                        -----------------------------------------
Magnitude (a.u.)       :      0.756081279
Magnitude (Debye)      :      1.921805883



--------------------
Rotational spectrum 
--------------------
 
Rotational constants in cm-1:             0.277958             0.051105             0.044222 
Rotational constants in MHz :          8332.973635          1532.078141          1325.736995 

Dipole components along the rotational axes: 
x,y,z [a.u.] :    -0.755895     0.002926    -0.016538 
x,y,z [Debye]:    -1.921332     0.007437    -0.042035 

 

Dipole moment calculation done in   0.0 sec 

Maximum memory used throughout the entire PROP-calculation: 6.6 MB

--------------------------------
SUGGESTED CITATIONS FOR THIS RUN
--------------------------------

Below you find a list of papers that are relevant to this ORCA run
We neither can nor want to force you to cite these papers, but we appreciate if you do
You receive ORCA, which is the product of decades of hard work by many enthusiastic individuals, for free
The only thing we kindly ask in return is that you cite our papers,
We deeply appreciate it, if you show your appreciation for ORCA by not just citing the generic ORCA reference.

Please note that relegating all ORCA citations to the supporting information does *not* help us.
SI sections are not indexed - citations you put there will not count into any citation statistics
But we need these citations in order to attract the funding resources that allow us to do what we are doing

Therefore, if you are a happy ORCA user, please consider citing a few of the papers listed below in the main body of your paper

In addition to the list printed below, the program has created the file orca.bibtex that contains the list in bibtex format
You can import this file easily into all common literature databanks and citation aid programs


List of essential papers. We consider these as the minimum necessary citations

  1. Neese, F.
     Software update: the ORCA program system, version 6.0
     WIRES Comput. Molec. Sci. 2025 15(1), e70019
     doi.org/10.1002/wcms.7019

List of papers to cite with high priority. The work reported in these papers was absolutely
necessary for this run to complete.
Our perspective: the developers of density functionals and basis sets usually get cited in chemistry papers
Good! But without the algorithms to do something with them, the functionals or basis sets would not do anything.
Hence, in our opinion, the algorithm design and method developments papers are equally worthy of getting cited

  1. Neese, F.
     An improvement of the resolution of the identity approximation for the formation of the Coulomb matrix
     J. Comp. Chem. 2003 24(14), 1740-1747
     doi.org/10.1002/jcc.10318
  2. Neese, F.; Wennmohs, F.; Hansen, A.; Becker, U.
     Efficient, approximate and parallel Hartree-Fock and hybrid DFT calculations. A 'chain-of-spheres' algorithm for the Hartree-Fock exchange
     Chem. Phys. 2009 356(1-3), 98-109
     doi.org/10.1016/j.chemphys.2008.10.036
  3. Grimme, S.; Antony, J.; Ehrlich, S.; Krieg, H.
     A consistent and accurate ab initio parametrization of density functional dispersion correction (DFT-D) for the 94 elements H-Pu
     J. Chem. Phys. 2010 132 , 154104
     doi.org/10.1063/1.3382344
  4. Grimme, S.; Ehrlich, S.; Goerigk, L.
     Effect of the damping function in dispersion corrected density functional theory
     J. Comput. Chem. 2011 32(7), 1456-1465
     doi.org/10.1002/jcc.21759
  5. Helmich-Paris, B.; de Souza, B.; Neese, F.; Izsák, R.
     An improved chain of spheres for exchange algorithm
     J. Chem. Phys. 2021 155(10), 104109
     doi.org/10.1063/5.0058766
  6. Neese, F.
     The SHARK Integral Generation and Digestion System
     J. Comp. Chem. 2022 44(3), 381
     doi.org/10.1002/jcc.26942

List of suggested additional citations. These are papers that are important in the 'surrounding' of 
of this run, or papers that preceded the highly important papers. If you like your results we are grateful for a citation.

  1. Izsak, R.; Neese, F.
     An overlap fitted chain of spheres exchange method
     J. Chem. Phys. 2011 135 , 144105
     doi.org/10.1063/1.3646921
  2. Izsak, R.; Hansen, A.; Neese, F.
     The resolution of identity and chain of spheres approximations for the LPNO-CCSD singles Fock term
     Molec. Phys. 2012 110 , 2413-2417
     doi.org/10.1080/00268976.2012.687466
  3. Neese, F.
     The ORCA program system
     WIRES Comput. Molec. Sci. 2012 2(1), 73-78
     doi.org/10.1002/wcms.81
  4. Izsak, R.; Neese, F.; Klopper, W.
     Robust fitting techniques in the chain of spheres approximation to the Fock exchange: The role of the complementary space
     J. Chem. Phys. 2013 139 , 
     doi.org/10.1063/1.4819264
  5. Neese, F.
     Software update: the ORCA program system, version 4.0
     WIRES Comput. Molec. Sci. 2018 8(1), 1-6
     doi.org/10.1002/wcms.1327
  6. Neese, F.; Wennmohs, F.; Becker, U.; Riplinger, C.
     The ORCA quantum chemistry program package
     J. Chem. Phys. 2020 152(22), 224108
     doi.org/10.1063/5.0004608
  7. Neese, F.
     Software update: The ORCA program system—Version 5.0
     WIRES Comput. Molec. Sci. 2022 12(1), e1606
     doi.org/10.1002/wcms.1606

List of optional additional citations

  1. Neese, F.
     Approximate second-order SCF convergence for spin unrestricted wavefunctions
     Chem. Phys. Lett. 2000 325(1-3), 93-98
     doi.org/10.1016/s0009-2614(00)00662-x

Timings for individual modules:

Sum of individual times          ...       17.145 sec (=   0.286 min)
Startup calculation              ...        1.435 sec (=   0.024 min)   8.4 %
SCF iterations                   ...        9.647 sec (=   0.161 min)  56.3 %
Property calculations            ...        0.488 sec (=   0.008 min)   2.8 %
SCF Gradient evaluation          ...        5.575 sec (=   0.093 min)  32.5 %
                             ****ORCA TERMINATED NORMALLY****
TOTAL RUN TIME: 0 days 0 hours 0 minutes 17 seconds 682 msec
