
                                 *****************
                                 * O   R   C   A *
                                 *****************

                                            #,                                       
                                            ###                                      
                                            ####                                     
                                            #####                                    
                                            ######                                   
                                           ########,                                 
                                     ,,################,,,,,                         
                               ,,#################################,,                 
                          ,,##########################################,,             
                       ,#########################################, ''#####,          
                    ,#############################################,,   '####,        
                  ,##################################################,,,,####,       
                ,###########''''           ''''###############################       
              ,#####''   ,,,,##########,,,,          '''####'''          '####       
            ,##' ,,,,###########################,,,                        '##       
           ' ,,###''''                  '''############,,,                           
         ,,##''                                '''############,,,,        ,,,,,,###''
      ,#''                                            '''#######################'''  
     '                                                          ''''####''''         
             ,#######,   #######,   ,#######,      ##                                
            ,#'     '#,  ##    ##  ,#'     '#,    #''#        ,####,    ,#,          
            ##       ##  ##   ,#'  ##            #'  '#       #'       ,# #          
            ##       ##  #######   ##           ,######,      #####,      #          
            '#,     ,#'  ##    ##  '#,     ,#' ,#      #,     #,   #      #          
             '#######'   ##     ##  '#######'  #'      '#     '####' #    #          



                #########################################################
                #                        -***-                          #
                #          Department of theory and spectroscopy        #
                #                                                       #
                #                      Frank Neese                      #
                #                                                       #
                #     Directorship, Architecture, Infrastructure        #
                #                    SHARK, DRIVERS                     #
                #        Core code/Algorithms in most modules           #
                #                                                       #
                #        Max Planck Institute fuer Kohlenforschung      #
                #                Kaiser Wilhelm Platz 1                 #
                #                 D-45470 Muelheim/Ruhr                 #
                #                      Germany                          #
                #                                                       #
                #                  All rights reserved                  #
                #                        -***-                          #
                #########################################################


                         Program Version 6.1.0  -  RELEASE   -
                                (GIT: $679e74b$)
                          ($2025-06-10 18:02:51 +0200$)


 With contributions from (in alphabetic order):
[Max-Planck-Institut fuer Kohlenforschung]                               
  Daniel Aravena         : Magnetic Suceptibility                        
  Michael Atanasov       : Ab Initio Ligand Field Theory (pilot matlab implementation)
  Alexander A. Auer      : GIAO ZORA, VPT2 properties, NMR spectrum      
  Ute Becker             : All parallelization in ORCA, NUMFREQ, NUMCALC 
  Giovanni Bistoni       : ED, misc. LED, open-shell LED, HFLD           
  Dmytro Bykov           : pre 5.0 version of the SCF Hessian            
  Marcos Casanova-Páez   : Triplet and SCS-CIS(D). UHF-(DLPNO)-IP/EA/STEOM-CCSD. UHF-CVS-IP/STEOM-CCSD   
  Vijay G. Chilkuri      : MRCI spin determinant printing, contributions to CSF-ICE 
  Pauline Colinet        : FMM embedding                                 
  Dipayan Datta          : RHF DLPNO-CCSD density                        
  Achintya Kumar Dutta   : EOM-CC, STEOM-CC                              
  Nicolas Foglia         : Exact transition moments, OPA infrastructure, MCD improvements    
  Dmitry Ganyushin       : Spin-Orbit,Spin-Spin,Magnetic field MRCI      
  Miquel Garcia-Rates    : C-PCM and meta-GGA Hessian, CCSD/C-PCM, Gaussian charge scheme 
  Tiago L. C. Gouveia    : GS-ROHF, GS-ROCIS                             
  Yang Guo               : DLPNO-NEVPT2, F12-NEVPT2, CIM, IAO-localization        
  Andreas Hansen         : Spin unrestricted coupled pair/coupled cluster methods 
  Ingolf Harden          : AUTO-CI MPn and infrastructure                
  Benjamin Helmich-Paris : MC-RPA, TRAH-(SCF,CASSCF), AVAS, COSX integrals, SCF dyn. polar., MC-PDFT, srDFT 
  Lee Huntington         : MR-EOM, pCC                                   
  Robert Izsak           : Overlap fitted RIJCOSX, COSX-SCS-MP3, EOM     
  Riya Kayal             : Wick's Theorem for AUTO-CI, AUTO-CI UHF-CCSDT 
  Emily Kempfer          : AUTO-CI RHF CISDT and CCSDT, approximate NEVPT4
  Christian Kollmar      : KDIIS, OOCD, Brueckner-CCSD(T), CCSD density, CASPT2, CASPT2-K, improved NEVPT2 
  Axel Koslowski         : Symmetry handling                             
  Simone Kossmann        : meta-GGA functionals, TD-DFT gradient, OOMP2, (MP2 Hessian; deprecated post 5.0) 
  Lucas Lang             : DCDCAS, Hyperfine gauge corrections, ICE-SOC+SSC
  Marvin Lechner         : AUTO-CI (C++ implementation), FIC-MRCC        
  Spencer Leger          : CASSCF response                               
  Dagmar Lenk            : GEPOL surface, SMD, ORCA-2-JSON               
  Dimitrios Liakos       : Extrapolation schemes; Compound Job, Property file
  Dimitrios Manganas     : Further ROCIS development; embedding schemes. LFT, Crystal Embedding 
  Dimitrios Pantazis     : SARC Basis sets                               
  Anastasios Papadopoulos: AUTO-CI, single reference methods and gradients 
  Taras Petrenko         : pre 6.0 DFT Hessian and TD-DFT gradient,  ECA, NRVS 
  Petra Pikulova         : Analytic Raman intensities                    
  Peter Pinski           : DLPNO-MP2, DLPNO-MP2 Gradient                 
  Shashank Vittal Rao    : ES-AILFT, MagRelax                            
  Christoph Reimann      : Effective Core Potentials                     
  Marius Retegan         : Local ZFS, SOC                                
  Christoph Riplinger    : Optimizer, TS searches, QM/MM, DLPNO-CCSD(T), (RO)-DLPNO pert. Triples 
  Michael Roemelt        : Original ROCIS implementation, recursive CI coupling coefficients
  Masaaki Saitow         : Open-shell DLPNO-CCSD energy and density      
  Barbara Sandhoefer     : DKH picture change effects                    
  Yorick L. A. Schmerwitz: GMF and freeze-and-release deltaSCF, NEB S-IDPP initial path                    
  Kantharuban Sivalingam : CASSCF convergence/infrastructure, NEVPT2, NEVPT3, NEVPT4(SD), FIC-MRCI and CEPA variants
  Bernardo de Souza      : ESD, SOC TD-DFT                               
  Georgi L. Stoychev     : AutoAux, RI-MP2 NMR, DLPNO-MP2 response, X2C  
  Van Anh Tran           : RI-MP2 g-tensors                              
  Willem Van den Heuvel  : Paramagnetic NMR                              
  Zikuan Wang            : NOTCH, Electric field optimization            
  Frank Wennmohs         : Technical directorship and infrastructure     
  Hang Xu                : AUTO-CI-Response properties                   
                                                                         
[FACCTs GmbH]                                                            
  Markus Bursch, Nicolas Foglia, Miquel Garcia-Rates, Ingolf Harden, Hagen Neugebauer, Anastasios Papadopoulos, 
  Christoph Riplinger, Bernardo de Souza, Georgi L. Stoychev                                                    
                                                                 
  APM, various basis sets, CI-OPT, improved COSX, DLPNO-Multilevel,           
  DOCKER, DRACO, updates on ESD, Fragmentator, GOAT, IRC, LR-CPCM, L-BFGS, MBIS, meta-GGA TD-DFT gradient, ML-optimized integration grids, 
  MM, NACMEs, nearIR, NEB, NEB-TS, NL-DFT gradient (VV10), 2- and 3-layer-ONIOM, interface openCOSMO-RS, QMMM,   
  Crystal-QMMM, RESP, rigid body optimization, SF, symmetry and pop. for TD-DFT, various functionals, SOLVATOR                                   
                                                                         
[Other institutions]                                                     
  V. Asgeirsson          : NEB                                           
  Christoph Bannwarth    : sTDA-DFT, sTD-DFT, PBEh-3c, B97-3c, D3        
  Giovanni Bistoni       : ETS/NOCV, ADLD/ADEX, COVALED                  
  Martin Brehm           : Molecular dynamics                            
  Ronald Cardenas        : ETS/NOCV                                      
  Martina Colucci        : COVALED                                       
  Sebastian Ehlert       : rSCAN, r2SCAN, r2SCAN-3c, D4, dhf basis sets  
  Marvin Friede          : D4 for Fr, Ra, Ac-Lr                          
  Lars Goerigk           : TD-DFT with DH, B97 family of functionals     
  Stefan Grimme          : VdW corrections, initial TS optimization, DFT functionals, gCP, sTDA/sTD-DF 
  Waldemar Hujo          : DFT-NL                                        
  H. Jonsson             : NEB                                           
  Holger Kruse           : gCP                                           
  Marcel Mueller         : wB97X-3c, vDZP basis set                      
  Hagen Neugebauer       : wr2SCAN, Native XTB                           
  Gianluca Regni         : ADLD/ADEX                                     
  Tobias Risthaus        : pre 6.0 range-separated hybrid DFT and stability analysis
  Lukas Wittmann         : regularized MP2, r2SCAN double-hybrids, wr2SCAN        
                                                                         
We gratefully acknowledge several colleagues who have allowed us to      
interface, adapt or use parts of their codes:                            
  Ed Valeev, F. Pavosevic, A. Kumar             : LibInt (2-el integral package), F12 methods 
  Garnet Chan, S. Sharma, J. Yang, R. Olivares  : DMRG                   
  Ulf Ekstrom                                   : XCFun DFT Library      
  Mihaly Kallay                                 : mrcc  (arbitrary order and MRCC methods)
  Frank Weinhold                                : gennbo (NPA and NBO analysis)           
  Simon Mueller                                 : openCOSMO-RS                            
  Christopher J. Cramer and Donald G. Truhlar   : smd solvation model                     
  S Lehtola, MJT Oliveira, MAL Marques          : LibXC Library                           
  Liviu Ungur et al                             : ANISO software                          


 Your calculation uses the libint2 library for the computation of 2-el integrals
 For citations please refer to: http://libint.valeyev.net

 Your ORCA version has been built with support for libXC version: 7.0.0
 For citations please refer to: https://libxc.gitlab.io

 This ORCA versions uses:
   CBLAS   interface :  Fast vector & matrix operations
   LAPACKE interface :  Fast linear algebra routines
   SCALAPACK package :  Parallel linear algebra routines
   Shared memory     :  Shared parallel matrices
   BLAS/LAPACK       :  OpenBLAS 0.3.29  USE64BITINT DYNAMIC_ARCH NO_AFFINITY Zen SINGLE_THREADED
        Core in use  :  Zen
   Copyright (c) 2011-2014, The OpenBLAS Project


  ***********************************
  * Starting time: Wed Sep 10 13:34:40 2025
  * Host name:     wyk-Server
  * Process ID:    2284777
  * Working dir.:  /home/wyk/Documents/code/openQDC/MGMR/singlepointcalc/38/prod
  ***********************************

Your calculation utilizes the atom-pairwise dispersion correction
with the Becke-Johnson damping scheme (D3BJ)


Warning: RI is on but no J-basis has been assigned. Assigning Def2/J (nothing to worry about!)
================================================================================

----- Orbital basis set information -----
Your calculation utilizes the basis: def2-SVP
   F. Weigend and R. Ahlrichs, Phys. Chem. Chem. Phys. 7, 3297 (2005).

----- AuxJ basis set information -----
Your calculation utilizes the auxiliary basis: def2/J
   H-Rn: F. Weigend, Phys. Chem. Chem. Phys. 8, 1057 (2006).
   Fr-Lr: K. Eichkorn, F. Weigend, O. Treutler, R. Ahlrichs; Theor. Chem. Acc. 97, 119 (1997).

================================================================================
                                        WARNINGS
                       Please study these warnings very carefully!
================================================================================


================================================================================
                                       INPUT FILE
================================================================================
NAME = orca.inp
|  1> ! B3LYP def2-SVP d3 EnGrad 
|  2> %pal nprocs 6 end 
|  3> *xyz 0 1 
|  4> C   1.81703943983849 0.43398277006388 0.36431805898164
|  5> C   0.4105153741767 0.88608112734043 -0.0540206678148
|  6> H   2.21088912838199 -0.35506798434654 -0.29822955161491
|  7> H   1.8054735491964 0.02594642998756 1.3871343711882
|  8> H   2.52849351010562 1.27404032070686 0.3339882400892
|  9> C   -0.59801126186085 -0.23395192455248 -0.06597921003441
| 10> O   -0.34137699736036 -1.25313633783145 -0.94055481952123
| 11> C   -1.67681032188341 -0.29207686956737 0.72675530587479
| 12> H   -1.88097951866295 0.50739185212536 1.43926688227917
| 13> H   -2.3639153059551 -1.13890501160318 0.67073117374681
| 14> H   0.05310058428009 1.679695526082 0.61836237679221
| 15> H   0.42449905814654 -1.02816944543865 -1.48289232121254
| 16> H   0.45473776159684 1.33320254703357 -1.06683383875411
| 17> *
| 18> 
| 19>                          ****END OF INPUT****
================================================================================

                     *******************************
                     * Energy+Gradient Calculation *
                     *******************************

---------------------------------
CARTESIAN COORDINATES (ANGSTROEM)
---------------------------------
  C      1.817039    0.433983    0.364318
  C      0.410515    0.886081   -0.054021
  H      2.210889   -0.355068   -0.298230
  H      1.805474    0.025946    1.387134
  H      2.528494    1.274040    0.333988
  C     -0.598011   -0.233952   -0.065979
  O     -0.341377   -1.253136   -0.940555
  C     -1.676810   -0.292077    0.726755
  H     -1.880980    0.507392    1.439267
  H     -2.363915   -1.138905    0.670731
  H      0.053101    1.679696    0.618362
  H      0.424499   -1.028169   -1.482892
  H      0.454738    1.333203   -1.066834

----------------------------
CARTESIAN COORDINATES (A.U.)
----------------------------
  NO LB      ZA    FRAG     MASS         X           Y           Z
   0 C     6.0000    0    12.011    3.433707    0.820109    0.688461
   1 C     6.0000    0    12.011    0.775762    1.674451   -0.102084
   2 H     1.0000    0     1.008    4.177975   -0.670981   -0.563572
   3 H     1.0000    0     1.008    3.411851    0.049032    2.621304
   4 H     1.0000    0     1.008    4.778160    2.407587    0.631146
   5 C     6.0000    0    12.011   -1.130078   -0.442105   -0.124683
   6 O     8.0000    0    15.999   -0.645109   -2.368084   -1.777391
   7 C     6.0000    0    12.011   -3.168712   -0.551945    1.373368
   8 H     1.0000    0     1.008   -3.554536    0.958832    2.719820
   9 H     1.0000    0     1.008   -4.467153   -2.152219    1.267498
  10 H     1.0000    0     1.008    0.100346    3.174165    1.168536
  11 H     1.0000    0     1.008    0.802187   -1.942959   -2.802260
  12 H     1.0000    0     1.008    0.859330    2.519388   -2.016024

--------------------------------
INTERNAL COORDINATES (ANGSTROEM)
--------------------------------
 C      0   0   0     0.000000000000     0.00000000     0.00000000
 C      1   0   0     1.535483690006     0.00000000     0.00000000
 H      1   2   0     1.103035813792   111.96532603     0.00000000
 H      1   2   3     1.101263198861   110.64106353   240.41906310
 H      1   2   3     1.101264491576   111.08022137   120.02444422
 C      2   1   3     1.507230247727   113.34671589    58.43987357
 O      6   2   1     1.367289475823   115.68343369   298.03457887
 C      6   2   1     1.340005199189   124.48798319   116.62255081
 H      8   6   2     1.090187160257   120.37173323     0.43005057
 H      8   6   2     1.091956896888   120.65525136   180.47628253
 H      2   1   3     1.099849128109   110.09450058   180.66325971
 H      7   6   2     0.965042072043   109.55192351   354.16925323
 H      2   1   3     1.107999865851   109.34755931   297.09559124

---------------------------
INTERNAL COORDINATES (A.U.)
---------------------------
 C      0   0   0     0.000000000000     0.00000000     0.00000000
 C      1   0   0     2.901643657215     0.00000000     0.00000000
 H      1   2   0     2.084435603975   111.96532603     0.00000000
 H      1   2   3     2.081085847213   110.64106353   240.41906310
 H      1   2   3     2.081088290091   111.08022137   120.02444422
 C      2   1   3     2.848252388965   113.34671589    58.43987357
 O      6   2   1     2.583802655098   115.68343369   298.03457887
 C      6   2   1     2.532242844497   124.48798319   116.62255081
 H      8   6   2     2.060155167603   120.37173323     0.43005057
 H      8   6   2     2.063499485164   120.65525136   180.47628253
 H      2   1   3     2.078413640758   110.09450058   180.66325971
 H      7   6   2     1.823665223873   109.55192351   354.16925323
 H      2   1   3     2.093816302880   109.34755931   297.09559124

---------------------
BASIS SET INFORMATION
---------------------
There are 3 groups of distinct atoms

 Group   1 Type C   : 7s4p1d contracted to 3s2p1d pattern {511/31/1}
 Group   2 Type H   : 4s1p contracted to 2s1p pattern {31/1}
 Group   3 Type O   : 7s4p1d contracted to 3s2p1d pattern {511/31/1}

Atom   0C    basis set group =>   1
Atom   1C    basis set group =>   1
Atom   2H    basis set group =>   2
Atom   3H    basis set group =>   2
Atom   4H    basis set group =>   2
Atom   5C    basis set group =>   1
Atom   6O    basis set group =>   3
Atom   7C    basis set group =>   1
Atom   8H    basis set group =>   2
Atom   9H    basis set group =>   2
Atom  10H    basis set group =>   2
Atom  11H    basis set group =>   2
Atom  12H    basis set group =>   2
---------------------------------
AUXILIARY/J BASIS SET INFORMATION
---------------------------------
There are 3 groups of distinct atoms

 Group   1 Type C   : 12s5p4d2f1g contracted to 6s4p3d1f1g pattern {711111/2111/211/2/1}
 Group   2 Type H   : 5s2p1d contracted to 3s1p1d pattern {311/2/1}
 Group   3 Type O   : 12s5p4d2f1g contracted to 6s4p3d1f1g pattern {711111/2111/211/2/1}

Atom   0C    basis set group =>   1
Atom   1C    basis set group =>   1
Atom   2H    basis set group =>   2
Atom   3H    basis set group =>   2
Atom   4H    basis set group =>   2
Atom   5C    basis set group =>   1
Atom   6O    basis set group =>   3
Atom   7C    basis set group =>   1
Atom   8H    basis set group =>   2
Atom   9H    basis set group =>   2
Atom  10H    basis set group =>   2
Atom  11H    basis set group =>   2
Atom  12H    basis set group =>   2


           ************************************************************
           *        Program running with 6 parallel MPI-processes     *
           *              working on a common directory               *
           ************************************************************
------------------------------------------------------------------------------
                             ORCA STARTUP CALCULATIONS
                           -- RI-GTO INTEGRALS CHOSEN --
------------------------------------------------------------------------------
------------------------------------------------------------------------------
                   ___                                                        
                  /   \      - P O W E R E D   B Y -                         
                 /     \                                                     
                 |  |  |   _    _      __       _____    __    __             
                 |  |  |  | |  | |    /  \     |  _  \  |  |  /  |          
                  \  \/   | |  | |   /    \    | | | |  |  | /  /          
                 / \  \   | |__| |  /  /\  \   | |_| |  |  |/  /          
                |  |  |   |  __  | /  /__\  \  |    /   |      \           
                |  |  |   | |  | | |   __   |  |    \   |  |\   \          
                \     /   | |  | | |  |  |  |  | |\  \  |  | \   \       
                 \___/    |_|  |_| |__|  |__|  |_| \__\ |__|  \__/        
                                                                              
                      - O R C A' S   B I G   F R I E N D -                    
                                      &                                       
                       - I N T E G R A L  F E E D E R -                       
                                                                              
 v1 FN, 2020, v2 2021, v3 2022-2024                                           
------------------------------------------------------------------------------


----------------------
SHARK INTEGRAL PACKAGE
----------------------

Number of atoms                             ...     13
Number of basis functions                   ...    110
Number of shells                            ...     54
Maximum angular momentum                    ...      2
Integral batch strategy                     ... SHARK/LIBINT Hybrid
RI-J (if used) integral strategy            ... SPLIT-RIJ (Revised 2003 algorithm where possible)
Printlevel                                  ...      1
Contraction scheme used                     ... SEGMENTED contraction
Prescreening option                         ... SCHWARTZ
   Thresh                                   ... 2.500e-11
   Tcut                                     ... 2.500e-12
   Tpresel                                  ... 2.500e-12 
Coulomb Range Separation                    ... NOT USED
Exchange Range Separation                   ... NOT USED
Multipole approximations                    ... NOT USED
Finite Nucleus Model                        ... NOT USED
CABS basis                                  ... NOT available
Auxiliary Coulomb fitting basis             ... AVAILABLE
   # of basis functions in Aux-J            ...    333
   # of shells in Aux-J                     ...    115
   Maximum angular momentum in Aux-J        ...      4
Auxiliary J/K fitting basis                 ... NOT available
Auxiliary Correlation fitting basis         ... NOT available
Auxiliary 'external' fitting basis          ... NOT available

Checking pre-screening integrals            ... done (  0.0 sec) Dimension = 54
   => SHARK Basis and OBASIS are compatible. Storing Pre-screening
Shell pair information
Shell pair cut-off parameter TPreSel        ...   2.5e-12
Total number of shell pairs                 ...      1485
Shell pairs after pre-screening             ...      1459
Total number of primitive shell pairs       ...      5139
Primitive shell pairs kept                  ...      4012
          la=0 lb=0:    488 shell pairs
          la=1 lb=0:    545 shell pairs
          la=1 lb=1:    169 shell pairs
          la=2 lb=0:    152 shell pairs
          la=2 lb=1:     90 shell pairs
          la=2 lb=2:     15 shell pairs

Checking whether 4 symmetric matrices of dimension 110 fit in memory
:Max Core in MB      =   4096.00
 MB in use           =      5.16
 MB left             =   4090.84
 MB needed           =      0.19
 Data fit in memory  = YES
Calculating RI/J V-Matrix + Cholesky decomp.... done (  0.0 sec)
Calculating Nuclear repulsion               ... done (  0.0 sec) ENN=    176.922074039583 Eh

Diagonalization of the overlap matrix:
Smallest eigenvalue                        ... 2.094e-03
Time for diagonalization                   ...    0.002 sec
Threshold for overlap eigenvalues          ... 1.000e-07
Number of eigenvalues below threshold      ... 0
Time for construction of square roots      ...    0.001 sec
Total time needed                          ...    0.004 sec

-------------------
DFT GRID GENERATION
-------------------

General Integration Accuracy     IntAcc      ... 4.388
Radial Grid Type                 RadialGrid  ... OptM3 with GC (2021)
Angular Grid (max. ang.)         AngularGrid ... 4 (Lebedev-302)
Angular grid pruning method      GridPruning ... 4 (adaptive)
Weight generation scheme         WeightScheme... mBecke (2022)
Basis function cutoff            BFCut       ... 1.0000e-11
Integration weight cutoff        WCut        ... 1.0000e-14
Partially contracted basis set               ... off
Rotationally invariant grid construction     ... off
Angular grids for H and He will be reduced by one unit

Total number of grid points                  ...    56136
Total number of batches                      ...      885
Average number of points per batch           ...       63
Average number of grid points per atom       ...     4318

--------------------
COSX GRID GENERATION
--------------------

GRIDX 1
-------
General Integration Accuracy     IntAcc      ... 3.816
Radial Grid Type                 RadialGrid  ... OptM3 with GC (2021)
Angular Grid (max. ang.)         AngularGrid ... 1 (Lebedev-50)
Angular grid pruning method      GridPruning ... 4 (adaptive)
Weight generation scheme         WeightScheme... mBecke (2022)
Basis function cutoff            BFCut       ... 1.0000e-11
Integration weight cutoff        WCut        ... 1.0000e-14
Partially contracted basis set               ... on
Rotationally invariant grid construction     ... off
Angular grids for H and He will be reduced by one unit

Total number of grid points                  ...     7207
Total number of batches                      ...       64
Average number of points per batch           ...      112
Average number of grid points per atom       ...      554
UseSFitting                                  ... on

GRIDX 2
-------
General Integration Accuracy     IntAcc      ... 4.020
Radial Grid Type                 RadialGrid  ... OptM3 with GC (2021)
Angular Grid (max. ang.)         AngularGrid ... 2 (Lebedev-110)
Angular grid pruning method      GridPruning ... 4 (adaptive)
Weight generation scheme         WeightScheme... mBecke (2022)
Basis function cutoff            BFCut       ... 1.0000e-11
Integration weight cutoff        WCut        ... 1.0000e-14
Partially contracted basis set               ... on
Rotationally invariant grid construction     ... off
Angular grids for H and He will be reduced by one unit

Total number of grid points                  ...    15271
Total number of batches                      ...      127
Average number of points per batch           ...      120
Average number of grid points per atom       ...     1175
UseSFitting                                  ... on

GRIDX 3
-------
General Integration Accuracy     IntAcc      ... 4.338
Radial Grid Type                 RadialGrid  ... OptM3 with GC (2021)
Angular Grid (max. ang.)         AngularGrid ... 3 (Lebedev-194)
Angular grid pruning method      GridPruning ... 4 (adaptive)
Weight generation scheme         WeightScheme... mBecke (2022)
Basis function cutoff            BFCut       ... 1.0000e-11
Integration weight cutoff        WCut        ... 1.0000e-14
Partially contracted basis set               ... on
Rotationally invariant grid construction     ... off
Angular grids for H and He will be reduced by one unit

Total number of grid points                  ...    33496
Total number of batches                      ...      267
Average number of points per batch           ...      125
Average number of grid points per atom       ...     2577
UseSFitting                                  ... on
Grids setup in   0.6 sec
Initializing property integral containers    ... done (  0.0 sec)

SHARK setup successfully completed in   0.7 seconds

Maximum memory used throughout the entire STARTUP-calculation: 15.8 MB


           ************************************************************
           *        Program running with 6 parallel MPI-processes     *
           *              working on a common directory               *
           ************************************************************
-------------------------------------------------------------------------------
                                 ORCA GUESS
                   Start orbitals & Density for SCF / CASSCF
-------------------------------------------------------------------------------

------------
SCF SETTINGS
------------
Hamiltonian:
 Density Functional     Method          .... DFT(GTOs)
 Exchange Functional    Exchange        .... B88
   X-Alpha parameter    XAlpha          ....  0.666667
   Becke's b parameter  XBeta           ....  0.004200
 Correlation Functional Correlation     .... LYP
 LDA part of GGA corr.  LDAOpt          .... VWN-5
 Gradients option       PostSCFGGA      .... off
 Hybrid DFT is turned on
   Fraction HF Exchange ScalHFX         ....  0.200000
   Scaling of DF-GGA-X  ScalDFX         ....  0.720000
   Scaling of DF-GGA-C  ScalDFC         ....  0.810000
   Scaling of DF-LDA-C  ScalLDAC        ....  1.000000
   Perturbative correction              ....  0.000000
   NL short-range parameter             ....  4.800000
 RI-approximation to the Coulomb term is turned on
   Number of AuxJ basis functions       .... 333
   RIJ-COSX (HFX calculated with COS-X)).... on


General Settings:
 Integral files         IntName         .... orca
 Hartree-Fock type      HFTyp           .... RHF
 Total Charge           Charge          ....    0
 Multiplicity           Mult            ....    1
 Number of Electrons    NEL             ....   40
 Basis Dimension        Dim             ....  110
 Nuclear Repulsion      ENuc            ....    176.9220740396 Eh

Convergence Acceleration:
 AO-DIIS                CNVDIIS         .... on
   Start iteration      DIISMaxIt       ....    12
   Startup error        DIISStart       ....  0.200000
   # of expansion vecs  DIISMaxEq       ....     5
   Bias factor          DIISBfac        ....   1.050
   Max. coefficient     DIISMaxC        ....  10.000
 MO-DIIS                CNVKDIIS        .... off
 Trust-Rad. Augm. Hess. CNVTRAH         .... auto
   Auto Start mean grad. ratio tolernc. ....  1.125000
   Auto Start start iteration           ....    50
   Auto Start num. interpolation iter.  ....    10
   Max. Number of Micro iterations      ....    24
   Max. Number of Macro iterations      .... Maxiter - #DIIS iter
   Number of Davidson start vectors     ....     2
   Converg. threshold    (grad. norm)   ....   1.000e-05
   Grad. Scal. Fac. for Micro threshold ....   0.100
   Minimum threshold for Micro iter.    ....   1.000e-02
   NR start threshold (gradient norm)   ....   1.000e-04
   Initial trust radius                 ....   0.400
   Minimum AH scaling param. (alpha)    ....   1.000
   Maximum AH scaling param. (alpha)    .... 1000.000
   Quad. conv. algorithm                .... NR
   White noise on init. David. guess    .... on
   Maximum white noise                  ....   0.010
   Pseudo random numbers                .... off
   Inactive MOs                         .... canonical
   Orbital update algorithm             .... Taylor
   Preconditioner                       .... Diag
   Full preconditioner red. dimension   ....   250
 SOSCF                 CNVSOSCF           .... on
   Start iteration     SOSCFMaxIt         ....   150
   Startup grad/error  SOSCFStart         ....  0.003300
   Hessian update      SOSCFHessUp        .... L-BFGS
   Autom. constraints  SOSCFAutoConstrain .... off
 Level Shifting         CNVShift        .... on
   Level shift para.    LevelShift      ....    0.2500
   Turn off err/grad.   ShiftErr        ....    0.0010
 Zerner damping         CNVZerner       .... off
 Static damping         CNVDamp         .... on
   Fraction old density DampFac         ....    0.7000
   Max. Damping (<1)    DampMax         ....    0.9800
   Min. Damping (>=0)   DampMin         ....    0.0000
   Turn off err/grad.   DampErr         ....    0.1000

SCF Procedure:
 Maximum # iterations   MaxIter         ....   125
 SCF integral mode      SCFMode         .... Direct
   Integral package                     .... SHARK and LIBINT hybrid scheme
 Reset frequency        DirectResetFreq ....    20
 Integral Threshold     Thresh          ....  2.500e-11 Eh
 Primitive CutOff       TCut            ....  2.500e-12 Eh

Convergence Tolerance:
 Convergence Check Mode ConvCheckMode   .... Total+1el-Energy
 Convergence forced     ConvForced      .... 0
 Energy Change          TolE            ....  1.000e-08 Eh
 1-El. energy change                    ....  1.000e-05 Eh
 Orbital Gradient       TolG            ....  1.000e-05
 Orbital Rotation angle TolX            ....  1.000e-05
 DIIS Error             TolErr          ....  5.000e-07

------------------------------
INITIAL GUESS: MODEL POTENTIAL
------------------------------
Loading Hartree-Fock densities                     ... done
Calculating cut-offs                               ... done
Initializing the effective Hamiltonian             ... done
Setting up the integral package (SHARK)            ... done
Starting the Coulomb interaction                   ... done (   0.0 sec)
Making the grid                                    ... done (   0.1 sec)
Mapping shells                                     ... done
Starting the XC term evaluation                    ... done (   0.0 sec)
  promolecular density results
     # of electrons  =     39.996101841
     EX              =    -31.115693870
     EC              =     -1.308698605
     EX+EC           =    -32.424392475
Transforming the Hamiltonian                       ... done (   0.0 sec)
Diagonalizing the Hamiltonian                      ... done (   0.0 sec)
Back transforming the eigenvectors                 ... done (   0.0 sec)
Now organizing SCF variables                       ... done
                      ------------------
                      INITIAL GUESS DONE (   0.1 sec)
                      ------------------
             **** ENERGY FILE WAS UPDATED (orca.en.tmp) ****
Finished Guess after   0.3 sec
Maximum memory used throughout the entire GUESS-calculation: 7.6 MB


           ************************************************************
           *        Program running with 6 parallel MPI-processes     *
           *              working on a common directory               *
           ************************************************************

-------------------------------------------------------------------------------------------
                                      ORCA LEAN-SCF
                              memory conserving SCF solver
-------------------------------------------------------------------------------------------

----------------------------------------D-I-I-S--------------------------------------------
Iteration    Energy (Eh)           Delta-E    RMSDP     MaxDP     DIISErr   Damp  Time(sec)
-------------------------------------------------------------------------------------------
               ***  Starting incremental Fock matrix formation  ***
    1    -231.9436007882627564     0.00e+00  1.02e-02  8.01e-02  2.11e-01  0.700   0.6
    2    -232.0289261422119580    -8.53e-02  7.11e-03  4.94e-02  9.52e-02  0.700   0.4
                               ***Turning on AO-DIIS***
    3    -232.0639171105088963    -3.50e-02  2.84e-03  1.49e-02  3.55e-02  0.700   0.4
    4    -232.0839948106728343    -2.01e-02  4.67e-03  2.16e-02  1.84e-02  0.000   0.3
    5    -232.1273512034646274    -4.34e-02  8.95e-04  5.43e-03  5.62e-03  0.000   0.3
                              *** Initializing SOSCF ***
---------------------------------------S-O-S-C-F--------------------------------------
Iteration    Energy (Eh)           Delta-E    RMSDP     MaxDP     MaxGrad    Time(sec)
--------------------------------------------------------------------------------------
    6    -232.1275959804522699    -2.45e-04  3.22e-04  1.54e-03  1.79e-03     0.3
               *** Restarting incremental Fock matrix formation ***
    7    -232.1277147341929208    -1.19e-04  2.29e-04  1.32e-03  2.11e-04     0.5
    8    -232.1277150393398756    -3.05e-07  7.46e-05  5.42e-04  2.42e-04     0.4
    9    -232.1277169882748694    -1.95e-06  4.89e-05  3.45e-04  9.94e-05     0.4
   10    -232.1277168998003617     8.85e-08  2.41e-05  2.06e-04  1.00e-04     0.5
   11    -232.1277171129158319    -2.13e-07  4.35e-06  3.23e-05  5.65e-06     0.4
   12    -232.1277171119378977     9.78e-10  2.21e-06  2.03e-05  9.42e-06     0.4
                 **** Energy Check signals convergence ****

               *****************************************************
               *                     SUCCESS                       *
               *           SCF CONVERGED AFTER  12 CYCLES          *
               *****************************************************

Recomputing exchange energy using gridx3       ... done (    0.769 sec)
Old exchange energy                            :     -6.346383775 Eh
New exchange energy                            :     -6.346378871 Eh
Exchange energy change after final integration :      0.000004904 Eh
Total energy after final integration           :   -232.127712209 Eh
             **** ENERGY FILE WAS UPDATED (orca.en.tmp) ****

----------------
TOTAL SCF ENERGY
----------------

Total Energy       :       -232.12771220940405 Eh           -6316.51617 eV

Components:
Nuclear Repulsion  :        176.92207403958332 Eh            4814.29439 eV
Electronic Energy  :       -409.04979115319998 Eh          -11130.81070 eV
One Electron Energy:       -663.89482926250503 Eh          -18065.49674 eV
Two Electron Energy:        254.84503810930505 Eh            6934.68604 eV

Virial components:
Potential Energy   :       -461.87834973129895 Eh          -12568.34886 eV
Kinetic Energy     :        229.75063752189490 Eh            6251.83268 eV
Virial Ratio       :          2.01034632466377

DFT components:
N(Alpha)           :       20.000051015059 electrons
N(Beta)            :       20.000051015059 electrons
N(Total)           :       40.000102030117 electrons
E(X)               :      -25.188568493088 Eh       
E(C)               :       -1.552780205534 Eh       
E(XC)              :      -26.741348698622 Eh       

---------------
SCF CONVERGENCE
---------------

  Last Energy change         ...   -9.7793e-10  Tolerance :   1.0000e-08
  Last MAX-Density change    ...    2.0266e-05  Tolerance :   1.0000e-07
  Last RMS-Density change    ...    2.2058e-06  Tolerance :   5.0000e-09
  Last DIIS Error            ...    1.7950e-03  Tolerance :   5.0000e-07
  Last Orbital Gradient      ...    9.4228e-06  Tolerance :   1.0000e-05
  Last Orbital Rotation      ...    5.1387e-06  Tolerance :   1.0000e-05


----------------
ORBITAL ENERGIES
----------------

  NO   OCC          E(Eh)            E(eV) 
   0   2.0000     -19.151946      -521.1509 
   1   2.0000     -10.234355      -278.4910 
   2   2.0000     -10.197392      -277.4852 
   3   2.0000     -10.190928      -277.3093 
   4   2.0000     -10.155713      -276.3510 
   5   2.0000      -1.037546       -28.2331 
   6   2.0000      -0.782917       -21.3042 
   7   2.0000      -0.721188       -19.6245 
   8   2.0000      -0.628378       -17.0990 
   9   2.0000      -0.570844       -15.5335 
  10   2.0000      -0.496452       -13.5091 
  11   2.0000      -0.465377       -12.6636 
  12   2.0000      -0.435577       -11.8526 
  13   2.0000      -0.408967       -11.1286 
  14   2.0000      -0.389984       -10.6120 
  15   2.0000      -0.386409       -10.5147 
  16   2.0000      -0.360411        -9.8073 
  17   2.0000      -0.346596        -9.4313 
  18   2.0000      -0.332057        -9.0357 
  19   2.0000      -0.218676        -5.9505 
  20   0.0000       0.030066         0.8181 
  21   0.0000       0.044229         1.2035 
  22   0.0000       0.088302         2.4028 
  23   0.0000       0.099524         2.7082 
  24   0.0000       0.107834         2.9343 
  25   0.0000       0.125166         3.4060 
  26   0.0000       0.142437         3.8759 
  27   0.0000       0.161023         4.3817 
  28   0.0000       0.166415         4.5284 
  29   0.0000       0.208577         5.6757 
  30   0.0000       0.232905         6.3377 
*Only the first 10 virtual orbitals were printed.

                    ********************************
                    * MULLIKEN POPULATION ANALYSIS *
                    ********************************

-----------------------
MULLIKEN ATOMIC CHARGES
-----------------------
   0 C :   -0.002223
   1 C :    0.032378
   2 H :   -0.000923
   3 H :    0.025379
   4 H :    0.019682
   5 C :    0.018384
   6 O :   -0.206327
   7 C :   -0.081153
   8 H :    0.002125
   9 H :    0.011578
  10 H :    0.005717
  11 H :    0.165621
  12 H :    0.009763
Sum of atomic charges:   -0.0000000

--------------------------------
MULLIKEN REDUCED ORBITAL CHARGES
--------------------------------
  0 C s       :     3.008070  s :     3.008070
      pz      :     1.014243  p :     2.965379
      px      :     0.960803
      py      :     0.990333
      dz2     :     0.006514  d :     0.028773
      dxz     :     0.003751
      dyz     :     0.006122
      dx2y2   :     0.003988
      dxy     :     0.008399

  1 C s       :     2.988889  s :     2.988889
      pz      :     0.990527  p :     2.942905
      px      :     0.961543
      py      :     0.990835
      dz2     :     0.007293  d :     0.035828
      dxz     :     0.004787
      dyz     :     0.007339
      dx2y2   :     0.006556
      dxy     :     0.009853

  2 H s       :     0.977712  s :     0.977712
      pz      :     0.007839  p :     0.023211
      px      :     0.005769
      py      :     0.009602

  3 H s       :     0.951783  s :     0.951783
      pz      :     0.012797  p :     0.022839
      px      :     0.003944
      py      :     0.006098

  4 H s       :     0.957446  s :     0.957446
      pz      :     0.004831  p :     0.022872
      px      :     0.008018
      py      :     0.010024

  5 C s       :     3.081796  s :     3.081796
      pz      :     0.926163  p :     2.824166
      px      :     1.008347
      py      :     0.889655
      dz2     :     0.017245  d :     0.075654
      dxz     :     0.010121
      dyz     :     0.017666
      dx2y2   :     0.013904
      dxy     :     0.016718

  6 O s       :     3.680342  s :     3.680342
      pz      :     1.457483  p :     4.511949
      px      :     1.483850
      py      :     1.570616
      dz2     :     0.001564  d :     0.014036
      dxz     :     0.002215
      dyz     :     0.004032
      dx2y2   :     0.003633
      dxy     :     0.002592

  7 C s       :     3.100076  s :     3.100076
      pz      :     1.027307  p :     2.957265
      px      :     1.006716
      py      :     0.923242
      dz2     :     0.004284  d :     0.023812
      dxz     :     0.005009
      dyz     :     0.003982
      dx2y2   :     0.005239
      dxy     :     0.005299

  8 H s       :     0.973664  s :     0.973664
      pz      :     0.009364  p :     0.024211
      px      :     0.004988
      py      :     0.009859

  9 H s       :     0.964824  s :     0.964824
      pz      :     0.004540  p :     0.023597
      px      :     0.008377
      py      :     0.010680

 10 H s       :     0.972032  s :     0.972032
      pz      :     0.008209  p :     0.022251
      px      :     0.004851
      py      :     0.009191

 11 H s       :     0.764757  s :     0.764757
      pz      :     0.023465  p :     0.069622
      px      :     0.030162
      py      :     0.015995

 12 H s       :     0.967951  s :     0.967951
      pz      :     0.012069  p :     0.022286
      px      :     0.004122
      py      :     0.006095



                     *******************************
                     * LOEWDIN POPULATION ANALYSIS *
                     *******************************

----------------------
LOEWDIN ATOMIC CHARGES
----------------------
   0 C :   -0.053119
   1 C :   -0.047444
   2 H :    0.014980
   3 H :    0.029161
   4 H :    0.026529
   5 C :    0.041606
   6 O :   -0.061661
   7 C :   -0.138695
   8 H :    0.022096
   9 H :    0.024336
  10 H :    0.034258
  11 H :    0.082097
  12 H :    0.025858

-------------------------------
LOEWDIN REDUCED ORBITAL CHARGES
-------------------------------
  0 C s       :     2.844510  s :     2.844510
      pz      :     1.065036  p :     3.137248
      px      :     1.015796
      py      :     1.056415
      dz2     :     0.016481  d :     0.071360
      dxz     :     0.008393
      dyz     :     0.015048
      dx2y2   :     0.010709
      dxy     :     0.020729

  1 C s       :     2.841420  s :     2.841420
      pz      :     1.056170  p :     3.116508
      px      :     1.020472
      py      :     1.039866
      dz2     :     0.018475  d :     0.089517
      dxz     :     0.010625
      dyz     :     0.018907
      dx2y2   :     0.016359
      dxy     :     0.025149

  2 H s       :     0.920912  s :     0.920912
      pz      :     0.021557  p :     0.064108
      px      :     0.016178
      py      :     0.026373

  3 H s       :     0.906549  s :     0.906549
      pz      :     0.036545  p :     0.064290
      px      :     0.011800
      py      :     0.015945

  4 H s       :     0.909304  s :     0.909304
      pz      :     0.012175  p :     0.064167
      px      :     0.024093
      py      :     0.027898

  5 C s       :     2.862980  s :     2.862980
      pz      :     0.948821  p :     2.927026
      px      :     1.053753
      py      :     0.924452
      dz2     :     0.036473  d :     0.168388
      dxz     :     0.023329
      dyz     :     0.038097
      dx2y2   :     0.031650
      dxy     :     0.038839

  6 O s       :     3.418047  s :     3.418047
      pz      :     1.483785  p :     4.616784
      px      :     1.529129
      py      :     1.603869
      dz2     :     0.002675  d :     0.026830
      dxz     :     0.005834
      dyz     :     0.007681
      dx2y2   :     0.006563
      dxy     :     0.004077

  7 C s       :     2.880017  s :     2.880017
      pz      :     1.076546  p :     3.193950
      px      :     1.065303
      py      :     1.052100
      dz2     :     0.010100  d :     0.064729
      dxz     :     0.014455
      dyz     :     0.010930
      dx2y2   :     0.013816
      dxy     :     0.015428

  8 H s       :     0.908381  s :     0.908381
      pz      :     0.027000  p :     0.069523
      px      :     0.013521
      py      :     0.029002

  9 H s       :     0.906067  s :     0.906067
      pz      :     0.013846  p :     0.069598
      px      :     0.024299
      py      :     0.031452

 10 H s       :     0.901070  s :     0.901070
      pz      :     0.022706  p :     0.064671
      px      :     0.014852
      py      :     0.027114

 11 H s       :     0.739424  s :     0.739424
      pz      :     0.057901  p :     0.178480
      px      :     0.077489
      py      :     0.043089

 12 H s       :     0.909734  s :     0.909734
      pz      :     0.034496  p :     0.064408
      px      :     0.012711
      py      :     0.017201



                      *****************************
                      * MAYER POPULATION ANALYSIS *
                      *****************************

  NA   - Mulliken gross atomic population
  ZA   - Total nuclear charge
  QA   - Mulliken gross atomic charge
  VA   - Mayer's total valence
  BVA  - Mayer's bonded valence
  FA   - Mayer's free valence

  ATOM       NA         ZA         QA         VA         BVA        FA
  0 C      6.0022     6.0000    -0.0022     4.0001     4.0001    -0.0000
  1 C      5.9676     6.0000     0.0324     3.9752     3.9752    -0.0000
  2 H      1.0009     1.0000    -0.0009     0.9965     0.9965     0.0000
  3 H      0.9746     1.0000     0.0254     0.9902     0.9902     0.0000
  4 H      0.9803     1.0000     0.0197     0.9830     0.9830     0.0000
  5 C      5.9816     6.0000     0.0184     4.2844     4.2844     0.0000
  6 O      8.2063     8.0000    -0.2063     2.2279     2.2279    -0.0000
  7 C      6.0812     6.0000    -0.0812     3.9061     3.9061    -0.0000
  8 H      0.9979     1.0000     0.0021     0.9861     0.9861    -0.0000
  9 H      0.9884     1.0000     0.0116     0.9919     0.9919    -0.0000
 10 H      0.9943     1.0000     0.0057     0.9901     0.9901    -0.0000
 11 H      0.8344     1.0000     0.1656     1.0243     1.0243     0.0000
 12 H      0.9902     1.0000     0.0098     0.9795     0.9795    -0.0000

  Mayer bond orders larger than 0.100000
B(  0-C ,  1-C ) :   1.0850 B(  0-C ,  2-H ) :   0.9672 B(  0-C ,  3-H ) :   0.9701 
B(  0-C ,  4-H ) :   0.9655 B(  1-C ,  5-C ) :   1.0396 B(  1-C , 10-H ) :   0.9271 
B(  1-C , 12-H ) :   0.9240 B(  5-C ,  6-O ) :   1.1662 B(  5-C ,  7-C ) :   1.9251 
B(  6-O , 11-H ) :   0.9692 B(  7-C ,  8-H ) :   0.9410 B(  7-C ,  9-H ) :   0.9378 


-------
TIMINGS
-------

Total SCF time: 0 days 0 hours 0 min 6 sec 

Total time                  ....       6.269 sec
Sum of individual times     ....       5.889 sec  ( 93.9%)

SCF preparation             ....       0.255 sec  (  4.1%)
Fock matrix formation       ....       5.431 sec  ( 86.6%)
  Startup                   ....       0.004 sec  (  0.1% of F)
  Split-RI-J                ....       0.433 sec  (  8.0% of F)
  Chain of spheres X        ....       4.041 sec  ( 74.4% of F)
  XC integration            ....       1.172 sec  ( 21.6% of F)
    Basis function eval.    ....       0.344 sec  ( 29.3% of XC)
    Density eval.           ....       0.184 sec  ( 15.7% of XC)
    XC-Functional eval.     ....       0.073 sec  (  6.2% of XC)
    XC-Potential eval.      ....       0.219 sec  ( 18.7% of XC)
Diagonalization             ....       0.000 sec  (  0.0%)
Density matrix formation    ....       0.026 sec  (  0.4%)
Total Energy calculation    ....       0.015 sec  (  0.2%)
Population analysis         ....       0.018 sec  (  0.3%)
Orbital Transformation      ....       0.015 sec  (  0.2%)
Orbital Orthonormalization  ....       0.000 sec  (  0.0%)
DIIS solution               ....       0.069 sec  (  1.1%)
SOSCF solution              ....       0.061 sec  (  1.0%)
Finished LeanSCF after   6.3 sec

Maximum memory used throughout the entire LEANSCF-calculation: 9.8 MB


-------------------------------------------------------------------------------
                          DFT DISPERSION CORRECTION                            
                                                                               
                              DFTD3 V3.1  Rev 1                                
                          USING Becke-Johnson damping                          
-------------------------------------------------------------------------------
The B3LYP functional is recognized
Active option DFTDOPT                   ...         4   

molecular C6(AA) [au] = 1282.892247 


            DFT-D V3
 parameters
 s6 scaling factor         :     1.0000 
 a1 scaling factor         :     0.3981 
 s8 scaling factor         :     1.9889 
 a2 scaling factor         :     4.4211 
 ad hoc parameters k1-k3   :    16.0000     1.3333    -4.0000 

 Edisp/kcal,au: -9.493847752182  -0.015129407813 
 E6   /kcal   :  -4.653767540 
 E8   /kcal   :  -4.840080212 
 % E8         :  50.981228462 

-------------------------   ----------------
Dispersion correction           -0.015129408
-------------------------   ----------------


-------------------------   --------------------
FINAL SINGLE POINT ENERGY      -232.142841617217
-------------------------   --------------------



           ************************************************************
           *        Program running with 6 parallel MPI-processes     *
           *              working on a common directory               *
           ************************************************************
------------------------------------------------------------------------------
                         ORCA SCF GRADIENT CALCULATION
------------------------------------------------------------------------------

Nuc. rep. gradient        (SHARK) ... done (  0.0 sec)
HCore & Overlap gradient  (SHARK) ... done (  0.0 sec)
Split-RIJ-J gradient      (SHARK) ... done (  0.2 sec)
done (  2.7 sec)
XC gradient                       ... done (  0.5 sec)
Dispersion correction             ... done (  0.1 sec)

-------------------
DISPERSION GRADIENT
-------------------

   1   C   :    0.000437978    0.000125829    0.000088743
   2   C   :    0.000106313    0.000181952   -0.000049960
   3   H   :    0.000272877   -0.000037350   -0.000000470
   4   H   :    0.000276120    0.000000194    0.000177556
   5   H   :    0.000209847    0.000075432    0.000043873
   6   C   :   -0.000262386   -0.000088971   -0.000079314
   7   O   :   -0.000135613   -0.000308940   -0.000251842
   8   C   :   -0.000552164   -0.000134771    0.000193004
   9   H   :   -0.000217447    0.000013448    0.000142200
  10   H   :   -0.000178511   -0.000076536    0.000072525
  11   H   :   -0.000004721    0.000231136    0.000044611
  12   H   :    0.000010551   -0.000178613   -0.000231742
  13   H   :    0.000037157    0.000197192   -0.000149185

Difference to translation invariance:
           :    0.0000000000    0.0000000000    0.0000000000

Difference to rotation invariance:
           :    0.0000000000   -0.0000000000   -0.0000000000

Norm of the Dispersion gradient    ...    0.0011969419
RMS gradient                       ...    0.0001916641
MAX gradient                       ...    0.0005521645

------------------
CARTESIAN GRADIENT
------------------

   1   C   :   -0.000013907    0.000008885   -0.000058647
   2   C   :   -0.000032643   -0.000053098    0.000107284
   3   H   :   -0.000044801   -0.000043605   -0.000004393
   4   H   :    0.000024048    0.000020058    0.000009265
   5   H   :    0.000073232    0.000067968    0.000026399
   6   C   :    0.000011534    0.000107359   -0.000091023
   7   O   :   -0.000093368   -0.000074532   -0.000037048
   8   C   :    0.000006150   -0.000111255    0.000064582
   9   H   :   -0.000035579    0.000076090    0.000042151
  10   H   :   -0.000012364   -0.000065255   -0.000033830
  11   H   :    0.000023996   -0.000007586   -0.000069766
  12   H   :    0.000043495    0.000044616    0.000050118
  13   H   :    0.000050206    0.000030355   -0.000005093

Difference to translation invariance:
           :   -0.0000000000   -0.0000000000   -0.0000000000

Difference to rotation invariance:
           :    0.0000453694    0.0000202324    0.0000970386

Norm of the Cartesian gradient     ...    0.0003416239
RMS gradient                       ...    0.0000547036
MAX gradient                       ...    0.0001112549

-------
TIMINGS
-------

Total SCF gradient time     ....        3.524 sec

Densities                   ....       0.000 sec  (  0.0%)
One electron gradient       ....       0.030 sec  (  0.9%)
RI-J Coulomb gradient       ....       0.191 sec  (  5.4%)
COSX gradient               ....       2.715 sec  ( 77.1%)
XC gradient                 ....       0.534 sec  ( 15.1%)

Maximum memory used throughout the entire SCFGRAD-calculation: 27.5 MB


           ************************************************************
           *        Program running with 6 parallel MPI-processes     *
           *              working on a common directory               *
           ************************************************************

------------------------------------------------------------------------------
                              ORCA PROPERTY CALCULATIONS
------------------------------------------------------------------------------

GBWName                                 ... orca.gbw
Number of atoms                         ...     13
Number of basis functions               ...    110
Max core memory                         ...   4096 MB

Electric properties:
Dipole moment                           ... YES
Quadrupole moment                       ...  NO
Static polarizability (Dipole/Dipole)   ...  NO
Static polarizability (Dipole/Quad.)    ...  NO
Static polarizability (Quad./Quad.)     ...  NO
Static polarizability (Velocity)        ...  NO
Static hyperpolarizability              ...  NO

Atomic electric properties:
Dipole moment                           ...  NO
Quadrupole moment                       ...  NO
Static polarizability                   ...  NO

Choice of electric origin               ... Center of mass
Position of electric origin             ...    -0.072627    -0.214775    -0.046388

General magnetic properties:
Magnetizability                         ...  NO

EPR properties:
g-Tensor (aka g-matrix)                 ...  NO
Zero-Field splitting spin-orbit         ...  NO
Zero-field splitting spin-spin          ...  NO
Hyperfine couplings                     ...  NO (   0 nuclei)
Quadrupole couplings                    ...  NO (   0 nuclei)
Contact density                         ...  NO (   0 nuclei)

NMR properties:
Chemical shifts                         ...  NO (   0 nuclei)
Spin-rotation constants                 ...  NO (   0 nuclei)
Spin-spin couplings                     ...  NO (   0 nuclei,    0 pairs)

Choice of magnetic origin               ... GIAO
Position of magnetic origin             ...     0.000000     0.000000     0.000000

Properties with geometric perturbations:
SCF Hessian                             ...  NO
IR spectrum                             ...  NO
VCD spectrum                            ...  NO
X-ray spectroscopy properties:
SCF XES/XAS/RIXS spectra                ...  NO

SCF SOC stabilization energy            ...  NO
Diagonal Born-Oppenheimer correction    ...  NO

-------------
DIPOLE MOMENT
-------------

Method             : SCF
Type of density    : Electron Density
Multiplicity       :   1
Irrep              :   0
Energy             :  -232.1277122094040521 Eh
Basis              : AO
                                X                 Y                 Z
Electronic contribution:     -2.601457756      -2.511544336      -1.899300924
Nuclear contribution   :      3.316438100       2.992223670       1.673205773
                        -----------------------------------------
Total Dipole Moment    :      0.714980344       0.480679335      -0.226095151
                        -----------------------------------------
Magnitude (a.u.)       :      0.890712374
Magnitude (Debye)      :      2.264010930



--------------------
Rotational spectrum 
--------------------
 
Rotational constants in cm-1:             0.269084             0.127446             0.098628 
Rotational constants in MHz :          8066.935818          3820.724562          2956.800019 

Dipole components along the rotational axes: 
x,y,z [a.u.] :     0.838138    -0.080364    -0.290578 
x,y,z [Debye]:     2.130376    -0.204269    -0.738590 

 

Dipole moment calculation done in   0.0 sec 

Maximum memory used throughout the entire PROP-calculation: 5.6 MB

--------------------------------
SUGGESTED CITATIONS FOR THIS RUN
--------------------------------

Below you find a list of papers that are relevant to this ORCA run
We neither can nor want to force you to cite these papers, but we appreciate if you do
You receive ORCA, which is the product of decades of hard work by many enthusiastic individuals, for free
The only thing we kindly ask in return is that you cite our papers,
We deeply appreciate it, if you show your appreciation for ORCA by not just citing the generic ORCA reference.

Please note that relegating all ORCA citations to the supporting information does *not* help us.
SI sections are not indexed - citations you put there will not count into any citation statistics
But we need these citations in order to attract the funding resources that allow us to do what we are doing

Therefore, if you are a happy ORCA user, please consider citing a few of the papers listed below in the main body of your paper

In addition to the list printed below, the program has created the file orca.bibtex that contains the list in bibtex format
You can import this file easily into all common literature databanks and citation aid programs


List of essential papers. We consider these as the minimum necessary citations

  1. Neese, F.
     Software update: the ORCA program system, version 6.0
     WIRES Comput. Molec. Sci. 2025 15(1), e70019
     doi.org/10.1002/wcms.7019

List of papers to cite with high priority. The work reported in these papers was absolutely
necessary for this run to complete.
Our perspective: the developers of density functionals and basis sets usually get cited in chemistry papers
Good! But without the algorithms to do something with them, the functionals or basis sets would not do anything.
Hence, in our opinion, the algorithm design and method developments papers are equally worthy of getting cited

  1. Neese, F.
     An improvement of the resolution of the identity approximation for the formation of the Coulomb matrix
     J. Comp. Chem. 2003 24(14), 1740-1747
     doi.org/10.1002/jcc.10318
  2. Neese, F.; Wennmohs, F.; Hansen, A.; Becker, U.
     Efficient, approximate and parallel Hartree-Fock and hybrid DFT calculations. A 'chain-of-spheres' algorithm for the Hartree-Fock exchange
     Chem. Phys. 2009 356(1-3), 98-109
     doi.org/10.1016/j.chemphys.2008.10.036
  3. Grimme, S.; Antony, J.; Ehrlich, S.; Krieg, H.
     A consistent and accurate ab initio parametrization of density functional dispersion correction (DFT-D) for the 94 elements H-Pu
     J. Chem. Phys. 2010 132 , 154104
     doi.org/10.1063/1.3382344
  4. Grimme, S.; Ehrlich, S.; Goerigk, L.
     Effect of the damping function in dispersion corrected density functional theory
     J. Comput. Chem. 2011 32(7), 1456-1465
     doi.org/10.1002/jcc.21759
  5. Helmich-Paris, B.; de Souza, B.; Neese, F.; Izsák, R.
     An improved chain of spheres for exchange algorithm
     J. Chem. Phys. 2021 155(10), 104109
     doi.org/10.1063/5.0058766
  6. Neese, F.
     The SHARK Integral Generation and Digestion System
     J. Comp. Chem. 2022 44(3), 381
     doi.org/10.1002/jcc.26942

List of suggested additional citations. These are papers that are important in the 'surrounding' of 
of this run, or papers that preceded the highly important papers. If you like your results we are grateful for a citation.

  1. Izsak, R.; Neese, F.
     An overlap fitted chain of spheres exchange method
     J. Chem. Phys. 2011 135 , 144105
     doi.org/10.1063/1.3646921
  2. Izsak, R.; Hansen, A.; Neese, F.
     The resolution of identity and chain of spheres approximations for the LPNO-CCSD singles Fock term
     Molec. Phys. 2012 110 , 2413-2417
     doi.org/10.1080/00268976.2012.687466
  3. Neese, F.
     The ORCA program system
     WIRES Comput. Molec. Sci. 2012 2(1), 73-78
     doi.org/10.1002/wcms.81
  4. Izsak, R.; Neese, F.; Klopper, W.
     Robust fitting techniques in the chain of spheres approximation to the Fock exchange: The role of the complementary space
     J. Chem. Phys. 2013 139 , 
     doi.org/10.1063/1.4819264
  5. Neese, F.
     Software update: the ORCA program system, version 4.0
     WIRES Comput. Molec. Sci. 2018 8(1), 1-6
     doi.org/10.1002/wcms.1327
  6. Neese, F.; Wennmohs, F.; Becker, U.; Riplinger, C.
     The ORCA quantum chemistry program package
     J. Chem. Phys. 2020 152(22), 224108
     doi.org/10.1063/5.0004608
  7. Neese, F.
     Software update: The ORCA program system—Version 5.0
     WIRES Comput. Molec. Sci. 2022 12(1), e1606
     doi.org/10.1002/wcms.1606

List of optional additional citations

  1. Neese, F.
     Approximate second-order SCF convergence for spin unrestricted wavefunctions
     Chem. Phys. Lett. 2000 325(1-3), 93-98
     doi.org/10.1016/s0009-2614(00)00662-x

Timings for individual modules:

Sum of individual times          ...       12.822 sec (=   0.214 min)
Startup calculation              ...        1.140 sec (=   0.019 min)   8.9 %
SCF iterations                   ...        7.282 sec (=   0.121 min)  56.8 %
Property calculations            ...        0.425 sec (=   0.007 min)   3.3 %
SCF Gradient evaluation          ...        3.976 sec (=   0.066 min)  31.0 %
                             ****ORCA TERMINATED NORMALLY****
TOTAL RUN TIME: 0 days 0 hours 0 minutes 13 seconds 368 msec
