
                                 *****************
                                 * O   R   C   A *
                                 *****************

                                            #,                                       
                                            ###                                      
                                            ####                                     
                                            #####                                    
                                            ######                                   
                                           ########,                                 
                                     ,,################,,,,,                         
                               ,,#################################,,                 
                          ,,##########################################,,             
                       ,#########################################, ''#####,          
                    ,#############################################,,   '####,        
                  ,##################################################,,,,####,       
                ,###########''''           ''''###############################       
              ,#####''   ,,,,##########,,,,          '''####'''          '####       
            ,##' ,,,,###########################,,,                        '##       
           ' ,,###''''                  '''############,,,                           
         ,,##''                                '''############,,,,        ,,,,,,###''
      ,#''                                            '''#######################'''  
     '                                                          ''''####''''         
             ,#######,   #######,   ,#######,      ##                                
            ,#'     '#,  ##    ##  ,#'     '#,    #''#        ,####,    ,#,          
            ##       ##  ##   ,#'  ##            #'  '#       #'       ,# #          
            ##       ##  #######   ##           ,######,      #####,      #          
            '#,     ,#'  ##    ##  '#,     ,#' ,#      #,     #,   #      #          
             '#######'   ##     ##  '#######'  #'      '#     '####' #    #          



                #########################################################
                #                        -***-                          #
                #          Department of theory and spectroscopy        #
                #                                                       #
                #                      Frank Neese                      #
                #                                                       #
                #     Directorship, Architecture, Infrastructure        #
                #                    SHARK, DRIVERS                     #
                #        Core code/Algorithms in most modules           #
                #                                                       #
                #        Max Planck Institute fuer Kohlenforschung      #
                #                Kaiser Wilhelm Platz 1                 #
                #                 D-45470 Muelheim/Ruhr                 #
                #                      Germany                          #
                #                                                       #
                #                  All rights reserved                  #
                #                        -***-                          #
                #########################################################


                         Program Version 6.1.0  -  RELEASE   -
                                (GIT: $679e74b$)
                          ($2025-06-10 18:02:51 +0200$)


 With contributions from (in alphabetic order):
[Max-Planck-Institut fuer Kohlenforschung]                               
  Daniel Aravena         : Magnetic Suceptibility                        
  Michael Atanasov       : Ab Initio Ligand Field Theory (pilot matlab implementation)
  Alexander A. Auer      : GIAO ZORA, VPT2 properties, NMR spectrum      
  Ute Becker             : All parallelization in ORCA, NUMFREQ, NUMCALC 
  Giovanni Bistoni       : ED, misc. LED, open-shell LED, HFLD           
  Dmytro Bykov           : pre 5.0 version of the SCF Hessian            
  Marcos Casanova-Páez   : Triplet and SCS-CIS(D). UHF-(DLPNO)-IP/EA/STEOM-CCSD. UHF-CVS-IP/STEOM-CCSD   
  Vijay G. Chilkuri      : MRCI spin determinant printing, contributions to CSF-ICE 
  Pauline Colinet        : FMM embedding                                 
  Dipayan Datta          : RHF DLPNO-CCSD density                        
  Achintya Kumar Dutta   : EOM-CC, STEOM-CC                              
  Nicolas Foglia         : Exact transition moments, OPA infrastructure, MCD improvements    
  Dmitry Ganyushin       : Spin-Orbit,Spin-Spin,Magnetic field MRCI      
  Miquel Garcia-Rates    : C-PCM and meta-GGA Hessian, CCSD/C-PCM, Gaussian charge scheme 
  Tiago L. C. Gouveia    : GS-ROHF, GS-ROCIS                             
  Yang Guo               : DLPNO-NEVPT2, F12-NEVPT2, CIM, IAO-localization        
  Andreas Hansen         : Spin unrestricted coupled pair/coupled cluster methods 
  Ingolf Harden          : AUTO-CI MPn and infrastructure                
  Benjamin Helmich-Paris : MC-RPA, TRAH-(SCF,CASSCF), AVAS, COSX integrals, SCF dyn. polar., MC-PDFT, srDFT 
  Lee Huntington         : MR-EOM, pCC                                   
  Robert Izsak           : Overlap fitted RIJCOSX, COSX-SCS-MP3, EOM     
  Riya Kayal             : Wick's Theorem for AUTO-CI, AUTO-CI UHF-CCSDT 
  Emily Kempfer          : AUTO-CI RHF CISDT and CCSDT, approximate NEVPT4
  Christian Kollmar      : KDIIS, OOCD, Brueckner-CCSD(T), CCSD density, CASPT2, CASPT2-K, improved NEVPT2 
  Axel Koslowski         : Symmetry handling                             
  Simone Kossmann        : meta-GGA functionals, TD-DFT gradient, OOMP2, (MP2 Hessian; deprecated post 5.0) 
  Lucas Lang             : DCDCAS, Hyperfine gauge corrections, ICE-SOC+SSC
  Marvin Lechner         : AUTO-CI (C++ implementation), FIC-MRCC        
  Spencer Leger          : CASSCF response                               
  Dagmar Lenk            : GEPOL surface, SMD, ORCA-2-JSON               
  Dimitrios Liakos       : Extrapolation schemes; Compound Job, Property file
  Dimitrios Manganas     : Further ROCIS development; embedding schemes. LFT, Crystal Embedding 
  Dimitrios Pantazis     : SARC Basis sets                               
  Anastasios Papadopoulos: AUTO-CI, single reference methods and gradients 
  Taras Petrenko         : pre 6.0 DFT Hessian and TD-DFT gradient,  ECA, NRVS 
  Petra Pikulova         : Analytic Raman intensities                    
  Peter Pinski           : DLPNO-MP2, DLPNO-MP2 Gradient                 
  Shashank Vittal Rao    : ES-AILFT, MagRelax                            
  Christoph Reimann      : Effective Core Potentials                     
  Marius Retegan         : Local ZFS, SOC                                
  Christoph Riplinger    : Optimizer, TS searches, QM/MM, DLPNO-CCSD(T), (RO)-DLPNO pert. Triples 
  Michael Roemelt        : Original ROCIS implementation, recursive CI coupling coefficients
  Masaaki Saitow         : Open-shell DLPNO-CCSD energy and density      
  Barbara Sandhoefer     : DKH picture change effects                    
  Yorick L. A. Schmerwitz: GMF and freeze-and-release deltaSCF, NEB S-IDPP initial path                    
  Kantharuban Sivalingam : CASSCF convergence/infrastructure, NEVPT2, NEVPT3, NEVPT4(SD), FIC-MRCI and CEPA variants
  Bernardo de Souza      : ESD, SOC TD-DFT                               
  Georgi L. Stoychev     : AutoAux, RI-MP2 NMR, DLPNO-MP2 response, X2C  
  Van Anh Tran           : RI-MP2 g-tensors                              
  Willem Van den Heuvel  : Paramagnetic NMR                              
  Zikuan Wang            : NOTCH, Electric field optimization            
  Frank Wennmohs         : Technical directorship and infrastructure     
  Hang Xu                : AUTO-CI-Response properties                   
                                                                         
[FACCTs GmbH]                                                            
  Markus Bursch, Nicolas Foglia, Miquel Garcia-Rates, Ingolf Harden, Hagen Neugebauer, Anastasios Papadopoulos, 
  Christoph Riplinger, Bernardo de Souza, Georgi L. Stoychev                                                    
                                                                 
  APM, various basis sets, CI-OPT, improved COSX, DLPNO-Multilevel,           
  DOCKER, DRACO, updates on ESD, Fragmentator, GOAT, IRC, LR-CPCM, L-BFGS, MBIS, meta-GGA TD-DFT gradient, ML-optimized integration grids, 
  MM, NACMEs, nearIR, NEB, NEB-TS, NL-DFT gradient (VV10), 2- and 3-layer-ONIOM, interface openCOSMO-RS, QMMM,   
  Crystal-QMMM, RESP, rigid body optimization, SF, symmetry and pop. for TD-DFT, various functionals, SOLVATOR                                   
                                                                         
[Other institutions]                                                     
  V. Asgeirsson          : NEB                                           
  Christoph Bannwarth    : sTDA-DFT, sTD-DFT, PBEh-3c, B97-3c, D3        
  Giovanni Bistoni       : ETS/NOCV, ADLD/ADEX, COVALED                  
  Martin Brehm           : Molecular dynamics                            
  Ronald Cardenas        : ETS/NOCV                                      
  Martina Colucci        : COVALED                                       
  Sebastian Ehlert       : rSCAN, r2SCAN, r2SCAN-3c, D4, dhf basis sets  
  Marvin Friede          : D4 for Fr, Ra, Ac-Lr                          
  Lars Goerigk           : TD-DFT with DH, B97 family of functionals     
  Stefan Grimme          : VdW corrections, initial TS optimization, DFT functionals, gCP, sTDA/sTD-DF 
  Waldemar Hujo          : DFT-NL                                        
  H. Jonsson             : NEB                                           
  Holger Kruse           : gCP                                           
  Marcel Mueller         : wB97X-3c, vDZP basis set                      
  Hagen Neugebauer       : wr2SCAN, Native XTB                           
  Gianluca Regni         : ADLD/ADEX                                     
  Tobias Risthaus        : pre 6.0 range-separated hybrid DFT and stability analysis
  Lukas Wittmann         : regularized MP2, r2SCAN double-hybrids, wr2SCAN        
                                                                         
We gratefully acknowledge several colleagues who have allowed us to      
interface, adapt or use parts of their codes:                            
  Ed Valeev, F. Pavosevic, A. Kumar             : LibInt (2-el integral package), F12 methods 
  Garnet Chan, S. Sharma, J. Yang, R. Olivares  : DMRG                   
  Ulf Ekstrom                                   : XCFun DFT Library      
  Mihaly Kallay                                 : mrcc  (arbitrary order and MRCC methods)
  Frank Weinhold                                : gennbo (NPA and NBO analysis)           
  Simon Mueller                                 : openCOSMO-RS                            
  Christopher J. Cramer and Donald G. Truhlar   : smd solvation model                     
  S Lehtola, MJT Oliveira, MAL Marques          : LibXC Library                           
  Liviu Ungur et al                             : ANISO software                          


 Your calculation uses the libint2 library for the computation of 2-el integrals
 For citations please refer to: http://libint.valeyev.net

 Your ORCA version has been built with support for libXC version: 7.0.0
 For citations please refer to: https://libxc.gitlab.io

 This ORCA versions uses:
   CBLAS   interface :  Fast vector & matrix operations
   LAPACKE interface :  Fast linear algebra routines
   SCALAPACK package :  Parallel linear algebra routines
   Shared memory     :  Shared parallel matrices
   BLAS/LAPACK       :  OpenBLAS 0.3.29  USE64BITINT DYNAMIC_ARCH NO_AFFINITY Zen SINGLE_THREADED
        Core in use  :  Zen
   Copyright (c) 2011-2014, The OpenBLAS Project


  ***********************************
  * Starting time: Wed Sep 10 13:33:58 2025
  * Host name:     wyk-Server
  * Process ID:    2278485
  * Working dir.:  /home/wyk/Documents/code/openQDC/MGMR/singlepointcalc/18/prod
  ***********************************

Your calculation utilizes the atom-pairwise dispersion correction
with the Becke-Johnson damping scheme (D3BJ)


Warning: RI is on but no J-basis has been assigned. Assigning Def2/J (nothing to worry about!)
================================================================================

----- Orbital basis set information -----
Your calculation utilizes the basis: def2-SVP
   F. Weigend and R. Ahlrichs, Phys. Chem. Chem. Phys. 7, 3297 (2005).

----- AuxJ basis set information -----
Your calculation utilizes the auxiliary basis: def2/J
   H-Rn: F. Weigend, Phys. Chem. Chem. Phys. 8, 1057 (2006).
   Fr-Lr: K. Eichkorn, F. Weigend, O. Treutler, R. Ahlrichs; Theor. Chem. Acc. 97, 119 (1997).

================================================================================
                                        WARNINGS
                       Please study these warnings very carefully!
================================================================================


================================================================================
                                       INPUT FILE
================================================================================
NAME = orca.inp
|  1> ! B3LYP def2-SVP d3 EnGrad 
|  2> %pal nprocs 6 end 
|  3> *xyz 0 1 
|  4> H   3.25134228141808 0.26782525957361 -0.54350841060746
|  5> C   2.29052372829017 0.49791608943382 -0.07134020626406
|  6> C   1.56535782800932 1.5573168880025 -0.43383627164235
|  7> H   1.94052081704886 -0.17380351639937 0.71820078417936
|  8> H   0.61057097656413 1.77643166653544 0.05434752897085
|  9> O   -2.11839882133772 -1.58418131961046 -0.06291629609907
| 10> H   -2.54786202878989 -1.72797915976167 0.8006073984299
| 11> O   -0.59501991177628 -0.56730313689139 1.24817733852728
| 12> C   -0.98273469987509 -0.91391119759969 0.16458318918481
| 13> H   -0.44995310919934 -0.72183387378081 -0.78937213400079
| 14> H   1.8943599396477 2.24649930049804 -1.21876892067848
| 15> *
| 16> 
| 17>                          ****END OF INPUT****
================================================================================

                     *******************************
                     * Energy+Gradient Calculation *
                     *******************************

---------------------------------
CARTESIAN COORDINATES (ANGSTROEM)
---------------------------------
  H      3.251342    0.267825   -0.543508
  C      2.290524    0.497916   -0.071340
  C      1.565358    1.557317   -0.433836
  H      1.940521   -0.173804    0.718201
  H      0.610571    1.776432    0.054348
  O     -2.118399   -1.584181   -0.062916
  H     -2.547862   -1.727979    0.800607
  O     -0.595020   -0.567303    1.248177
  C     -0.982735   -0.913911    0.164583
  H     -0.449953   -0.721834   -0.789372
  H      1.894360    2.246499   -1.218769

----------------------------
CARTESIAN COORDINATES (A.U.)
----------------------------
  NO LB      ZA    FRAG     MASS         X           Y           Z
   0 H     1.0000    0     1.008    6.144146    0.506116   -1.027082
   1 C     6.0000    0    12.011    4.328463    0.940925   -0.134813
   2 C     6.0000    0    12.011    2.958098    2.942902   -0.819832
   3 H     1.0000    0     1.008    3.667053   -0.328441    1.357203
   4 H     1.0000    0     1.008    1.153812    3.356969    0.102702
   5 O     8.0000    0    15.999   -4.003194   -2.993669   -0.118895
   6 H     1.0000    0     1.008   -4.814761   -3.265407    1.512929
   7 O     8.0000    0    15.999   -1.124425   -1.072048    2.358713
   8 C     6.0000    0    12.011   -1.857099   -1.727042    0.311017
   9 H     1.0000    0     1.008   -0.850288   -1.364068   -1.491697
  10 H     1.0000    0     1.008    3.579821    4.245268   -2.303139

--------------------------------
INTERNAL COORDINATES (ANGSTROEM)
--------------------------------
 H      0   0   0     0.000000000000     0.00000000     0.00000000
 C      1   0   0     1.095014563928     0.00000000     0.00000000
 C      2   1   0     1.334016128970   121.78119368     0.00000000
 H      2   1   3     1.094113450392   117.57128204   180.17638983
 H      3   2   1     1.094510228845   120.79605584   180.46962535
 O      5   3   2     4.330675074995   112.47476277   305.60095139
 H      6   5   3     0.975084425268   111.59232714   135.13790362
 O      6   5   3     2.252485529220    37.60270094    96.40349342
 C      8   6   5     1.201930191462    29.17831786   323.86810861
 H      9   8   6     1.109405552682   124.77656523   179.90102265
 H      3   2   1     1.095141109939   122.08773317     0.00000000

---------------------------
INTERNAL COORDINATES (A.U.)
---------------------------
 H      0   0   0     0.000000000000     0.00000000     0.00000000
 C      1   0   0     2.069277638478     0.00000000     0.00000000
 C      2   1   0     2.520925141988   121.78119368     0.00000000
 H      2   1   3     2.067574780680   117.57128204   180.17638983
 H      3   2   1     2.068324583292   120.79605584   180.46962535
 O      5   3   2     8.183789866739   112.47476277   305.60095139
 H      6   5   3     1.842642521209   111.59232714   135.13790362
 O      6   5   3     4.256580770846    37.60270094    96.40349342
 C      8   6   5     2.271318893955    29.17831786   323.86810861
 H      9   8   6     2.096472666021   124.77656523   179.90102265
 H      3   2   1     2.069516775783   122.08773317     0.00000000

---------------------
BASIS SET INFORMATION
---------------------
There are 3 groups of distinct atoms

 Group   1 Type H   : 4s1p contracted to 2s1p pattern {31/1}
 Group   2 Type C   : 7s4p1d contracted to 3s2p1d pattern {511/31/1}
 Group   3 Type O   : 7s4p1d contracted to 3s2p1d pattern {511/31/1}

Atom   0H    basis set group =>   1
Atom   1C    basis set group =>   2
Atom   2C    basis set group =>   2
Atom   3H    basis set group =>   1
Atom   4H    basis set group =>   1
Atom   5O    basis set group =>   3
Atom   6H    basis set group =>   1
Atom   7O    basis set group =>   3
Atom   8C    basis set group =>   2
Atom   9H    basis set group =>   1
Atom  10H    basis set group =>   1
---------------------------------
AUXILIARY/J BASIS SET INFORMATION
---------------------------------
There are 3 groups of distinct atoms

 Group   1 Type H   : 5s2p1d contracted to 3s1p1d pattern {311/2/1}
 Group   2 Type C   : 12s5p4d2f1g contracted to 6s4p3d1f1g pattern {711111/2111/211/2/1}
 Group   3 Type O   : 12s5p4d2f1g contracted to 6s4p3d1f1g pattern {711111/2111/211/2/1}

Atom   0H    basis set group =>   1
Atom   1C    basis set group =>   2
Atom   2C    basis set group =>   2
Atom   3H    basis set group =>   1
Atom   4H    basis set group =>   1
Atom   5O    basis set group =>   3
Atom   6H    basis set group =>   1
Atom   7O    basis set group =>   3
Atom   8C    basis set group =>   2
Atom   9H    basis set group =>   1
Atom  10H    basis set group =>   1


           ************************************************************
           *        Program running with 6 parallel MPI-processes     *
           *              working on a common directory               *
           ************************************************************
------------------------------------------------------------------------------
                             ORCA STARTUP CALCULATIONS
                           -- RI-GTO INTEGRALS CHOSEN --
------------------------------------------------------------------------------
------------------------------------------------------------------------------
                   ___                                                        
                  /   \      - P O W E R E D   B Y -                         
                 /     \                                                     
                 |  |  |   _    _      __       _____    __    __             
                 |  |  |  | |  | |    /  \     |  _  \  |  |  /  |          
                  \  \/   | |  | |   /    \    | | | |  |  | /  /          
                 / \  \   | |__| |  /  /\  \   | |_| |  |  |/  /          
                |  |  |   |  __  | /  /__\  \  |    /   |      \           
                |  |  |   | |  | | |   __   |  |    \   |  |\   \          
                \     /   | |  | | |  |  |  |  | |\  \  |  | \   \       
                 \___/    |_|  |_| |__|  |__|  |_| \__\ |__|  \__/        
                                                                              
                      - O R C A' S   B I G   F R I E N D -                    
                                      &                                       
                       - I N T E G R A L  F E E D E R -                       
                                                                              
 v1 FN, 2020, v2 2021, v3 2022-2024                                           
------------------------------------------------------------------------------


----------------------
SHARK INTEGRAL PACKAGE
----------------------

Number of atoms                             ...     11
Number of basis functions                   ...    100
Number of shells                            ...     48
Maximum angular momentum                    ...      2
Integral batch strategy                     ... SHARK/LIBINT Hybrid
RI-J (if used) integral strategy            ... SPLIT-RIJ (Revised 2003 algorithm where possible)
Printlevel                                  ...      1
Contraction scheme used                     ... SEGMENTED contraction
Prescreening option                         ... SCHWARTZ
   Thresh                                   ... 2.500e-11
   Tcut                                     ... 2.500e-12
   Tpresel                                  ... 2.500e-12 
Coulomb Range Separation                    ... NOT USED
Exchange Range Separation                   ... NOT USED
Multipole approximations                    ... NOT USED
Finite Nucleus Model                        ... NOT USED
CABS basis                                  ... NOT available
Auxiliary Coulomb fitting basis             ... AVAILABLE
   # of basis functions in Aux-J            ...    311
   # of shells in Aux-J                     ...    105
   Maximum angular momentum in Aux-J        ...      4
Auxiliary J/K fitting basis                 ... NOT available
Auxiliary Correlation fitting basis         ... NOT available
Auxiliary 'external' fitting basis          ... NOT available

Checking pre-screening integrals            ... done (  0.0 sec) Dimension = 48
   => SHARK Basis and OBASIS are compatible. Storing Pre-screening
Shell pair information
Shell pair cut-off parameter TPreSel        ...   2.5e-12
Total number of shell pairs                 ...      1176
Shell pairs after pre-screening             ...      1079
Total number of primitive shell pairs       ...      4178
Primitive shell pairs kept                  ...      2945
          la=0 lb=0:    351 shell pairs
          la=1 lb=0:    407 shell pairs
          la=1 lb=1:    122 shell pairs
          la=2 lb=0:    118 shell pairs
          la=2 lb=1:     68 shell pairs
          la=2 lb=2:     13 shell pairs

Checking whether 4 symmetric matrices of dimension 100 fit in memory
:Max Core in MB      =   4096.00
 MB in use           =      4.65
 MB left             =   4091.35
 MB needed           =      0.15
 Data fit in memory  = YES
Calculating RI/J V-Matrix + Cholesky decomp.... done (  0.0 sec)
Calculating Nuclear repulsion               ... done (  0.0 sec) ENN=    155.607699314861 Eh

Diagonalization of the overlap matrix:
Smallest eigenvalue                        ... 3.959e-03
Time for diagonalization                   ...    0.002 sec
Threshold for overlap eigenvalues          ... 1.000e-07
Number of eigenvalues below threshold      ... 0
Time for construction of square roots      ...    0.001 sec
Total time needed                          ...    0.003 sec

-------------------
DFT GRID GENERATION
-------------------

General Integration Accuracy     IntAcc      ... 4.388
Radial Grid Type                 RadialGrid  ... OptM3 with GC (2021)
Angular Grid (max. ang.)         AngularGrid ... 4 (Lebedev-302)
Angular grid pruning method      GridPruning ... 4 (adaptive)
Weight generation scheme         WeightScheme... mBecke (2022)
Basis function cutoff            BFCut       ... 1.0000e-11
Integration weight cutoff        WCut        ... 1.0000e-14
Partially contracted basis set               ... off
Rotationally invariant grid construction     ... off
Angular grids for H and He will be reduced by one unit

Total number of grid points                  ...    50080
Total number of batches                      ...      789
Average number of points per batch           ...       63
Average number of grid points per atom       ...     4553

--------------------
COSX GRID GENERATION
--------------------

GRIDX 1
-------
General Integration Accuracy     IntAcc      ... 3.816
Radial Grid Type                 RadialGrid  ... OptM3 with GC (2021)
Angular Grid (max. ang.)         AngularGrid ... 1 (Lebedev-50)
Angular grid pruning method      GridPruning ... 4 (adaptive)
Weight generation scheme         WeightScheme... mBecke (2022)
Basis function cutoff            BFCut       ... 1.0000e-11
Integration weight cutoff        WCut        ... 1.0000e-14
Partially contracted basis set               ... on
Rotationally invariant grid construction     ... off
Angular grids for H and He will be reduced by one unit

Total number of grid points                  ...     6435
Total number of batches                      ...       58
Average number of points per batch           ...      110
Average number of grid points per atom       ...      585
UseSFitting                                  ... on

GRIDX 2
-------
General Integration Accuracy     IntAcc      ... 4.020
Radial Grid Type                 RadialGrid  ... OptM3 with GC (2021)
Angular Grid (max. ang.)         AngularGrid ... 2 (Lebedev-110)
Angular grid pruning method      GridPruning ... 4 (adaptive)
Weight generation scheme         WeightScheme... mBecke (2022)
Basis function cutoff            BFCut       ... 1.0000e-11
Integration weight cutoff        WCut        ... 1.0000e-14
Partially contracted basis set               ... on
Rotationally invariant grid construction     ... off
Angular grids for H and He will be reduced by one unit

Total number of grid points                  ...    13968
Total number of batches                      ...      116
Average number of points per batch           ...      120
Average number of grid points per atom       ...     1270
UseSFitting                                  ... on

GRIDX 3
-------
General Integration Accuracy     IntAcc      ... 4.338
Radial Grid Type                 RadialGrid  ... OptM3 with GC (2021)
Angular Grid (max. ang.)         AngularGrid ... 3 (Lebedev-194)
Angular grid pruning method      GridPruning ... 4 (adaptive)
Weight generation scheme         WeightScheme... mBecke (2022)
Basis function cutoff            BFCut       ... 1.0000e-11
Integration weight cutoff        WCut        ... 1.0000e-14
Partially contracted basis set               ... on
Rotationally invariant grid construction     ... off
Angular grids for H and He will be reduced by one unit

Total number of grid points                  ...    30684
Total number of batches                      ...      247
Average number of points per batch           ...      124
Average number of grid points per atom       ...     2789
UseSFitting                                  ... on
Grids setup in   0.7 sec
Initializing property integral containers    ... done (  0.0 sec)

SHARK setup successfully completed in   0.8 seconds

Maximum memory used throughout the entire STARTUP-calculation: 14.1 MB


           ************************************************************
           *        Program running with 6 parallel MPI-processes     *
           *              working on a common directory               *
           ************************************************************
-------------------------------------------------------------------------------
                                 ORCA GUESS
                   Start orbitals & Density for SCF / CASSCF
-------------------------------------------------------------------------------

------------
SCF SETTINGS
------------
Hamiltonian:
 Density Functional     Method          .... DFT(GTOs)
 Exchange Functional    Exchange        .... B88
   X-Alpha parameter    XAlpha          ....  0.666667
   Becke's b parameter  XBeta           ....  0.004200
 Correlation Functional Correlation     .... LYP
 LDA part of GGA corr.  LDAOpt          .... VWN-5
 Gradients option       PostSCFGGA      .... off
 Hybrid DFT is turned on
   Fraction HF Exchange ScalHFX         ....  0.200000
   Scaling of DF-GGA-X  ScalDFX         ....  0.720000
   Scaling of DF-GGA-C  ScalDFC         ....  0.810000
   Scaling of DF-LDA-C  ScalLDAC        ....  1.000000
   Perturbative correction              ....  0.000000
   NL short-range parameter             ....  4.800000
 RI-approximation to the Coulomb term is turned on
   Number of AuxJ basis functions       .... 311
   RIJ-COSX (HFX calculated with COS-X)).... on


General Settings:
 Integral files         IntName         .... orca
 Hartree-Fock type      HFTyp           .... RHF
 Total Charge           Charge          ....    0
 Multiplicity           Mult            ....    1
 Number of Electrons    NEL             ....   40
 Basis Dimension        Dim             ....  100
 Nuclear Repulsion      ENuc            ....    155.6076993149 Eh

Convergence Acceleration:
 AO-DIIS                CNVDIIS         .... on
   Start iteration      DIISMaxIt       ....    12
   Startup error        DIISStart       ....  0.200000
   # of expansion vecs  DIISMaxEq       ....     5
   Bias factor          DIISBfac        ....   1.050
   Max. coefficient     DIISMaxC        ....  10.000
 MO-DIIS                CNVKDIIS        .... off
 Trust-Rad. Augm. Hess. CNVTRAH         .... auto
   Auto Start mean grad. ratio tolernc. ....  1.125000
   Auto Start start iteration           ....    50
   Auto Start num. interpolation iter.  ....    10
   Max. Number of Micro iterations      ....    24
   Max. Number of Macro iterations      .... Maxiter - #DIIS iter
   Number of Davidson start vectors     ....     2
   Converg. threshold    (grad. norm)   ....   1.000e-05
   Grad. Scal. Fac. for Micro threshold ....   0.100
   Minimum threshold for Micro iter.    ....   1.000e-02
   NR start threshold (gradient norm)   ....   1.000e-04
   Initial trust radius                 ....   0.400
   Minimum AH scaling param. (alpha)    ....   1.000
   Maximum AH scaling param. (alpha)    .... 1000.000
   Quad. conv. algorithm                .... NR
   White noise on init. David. guess    .... on
   Maximum white noise                  ....   0.010
   Pseudo random numbers                .... off
   Inactive MOs                         .... canonical
   Orbital update algorithm             .... Taylor
   Preconditioner                       .... Diag
   Full preconditioner red. dimension   ....   250
 SOSCF                 CNVSOSCF           .... on
   Start iteration     SOSCFMaxIt         ....   150
   Startup grad/error  SOSCFStart         ....  0.003300
   Hessian update      SOSCFHessUp        .... L-BFGS
   Autom. constraints  SOSCFAutoConstrain .... off
 Level Shifting         CNVShift        .... on
   Level shift para.    LevelShift      ....    0.2500
   Turn off err/grad.   ShiftErr        ....    0.0010
 Zerner damping         CNVZerner       .... off
 Static damping         CNVDamp         .... on
   Fraction old density DampFac         ....    0.7000
   Max. Damping (<1)    DampMax         ....    0.9800
   Min. Damping (>=0)   DampMin         ....    0.0000
   Turn off err/grad.   DampErr         ....    0.1000

SCF Procedure:
 Maximum # iterations   MaxIter         ....   125
 SCF integral mode      SCFMode         .... Direct
   Integral package                     .... SHARK and LIBINT hybrid scheme
 Reset frequency        DirectResetFreq ....    20
 Integral Threshold     Thresh          ....  2.500e-11 Eh
 Primitive CutOff       TCut            ....  2.500e-12 Eh

Convergence Tolerance:
 Convergence Check Mode ConvCheckMode   .... Total+1el-Energy
 Convergence forced     ConvForced      .... 0
 Energy Change          TolE            ....  1.000e-08 Eh
 1-El. energy change                    ....  1.000e-05 Eh
 Orbital Gradient       TolG            ....  1.000e-05
 Orbital Rotation angle TolX            ....  1.000e-05
 DIIS Error             TolErr          ....  5.000e-07

------------------------------
INITIAL GUESS: MODEL POTENTIAL
------------------------------
Loading Hartree-Fock densities                     ... done
Calculating cut-offs                               ... done
Initializing the effective Hamiltonian             ... done
Setting up the integral package (SHARK)            ... done
Starting the Coulomb interaction                   ... done (   0.0 sec)
Making the grid                                    ... done (   0.1 sec)
Mapping shells                                     ... done
Starting the XC term evaluation                    ... done (   0.0 sec)
  promolecular density results
     # of electrons  =     39.997162277
     EX              =    -33.529952875
     EC              =     -1.335851179
     EX+EC           =    -34.865804054
Transforming the Hamiltonian                       ... done (   0.0 sec)
Diagonalizing the Hamiltonian                      ... done (   0.0 sec)
Back transforming the eigenvectors                 ... done (   0.0 sec)
Now organizing SCF variables                       ... done
                      ------------------
                      INITIAL GUESS DONE (   0.1 sec)
                      ------------------
             **** ENERGY FILE WAS UPDATED (orca.en.tmp) ****
Finished Guess after   0.2 sec
Maximum memory used throughout the entire GUESS-calculation: 7.0 MB


           ************************************************************
           *        Program running with 6 parallel MPI-processes     *
           *              working on a common directory               *
           ************************************************************

-------------------------------------------------------------------------------------------
                                      ORCA LEAN-SCF
                              memory conserving SCF solver
-------------------------------------------------------------------------------------------

----------------------------------------D-I-I-S--------------------------------------------
Iteration    Energy (Eh)           Delta-E    RMSDP     MaxDP     DIISErr   Damp  Time(sec)
-------------------------------------------------------------------------------------------
               ***  Starting incremental Fock matrix formation  ***
    1    -267.8089864377329832     0.00e+00  1.18e-02  9.40e-02  2.64e-01  0.700   0.4
    2    -267.9045718065872279    -9.56e-02  7.23e-03  5.22e-02  9.90e-02  0.700   0.2
                               ***Turning on AO-DIIS***
    3    -267.9377959000755709    -3.32e-02  2.62e-03  1.51e-02  3.34e-02  0.700   0.3
    4    -267.9587796559887920    -2.10e-02  3.85e-03  2.06e-02  1.44e-02  0.000   0.2
    5    -268.0058787141397829    -4.71e-02  9.94e-04  5.66e-03  6.82e-03  0.000   0.2
                              *** Initializing SOSCF ***
---------------------------------------S-O-S-C-F--------------------------------------
Iteration    Energy (Eh)           Delta-E    RMSDP     MaxDP     MaxGrad    Time(sec)
--------------------------------------------------------------------------------------
    6    -268.0061838591668675    -3.05e-04  3.10e-04  1.51e-03  1.89e-03     0.2
               *** Restarting incremental Fock matrix formation ***
    7    -268.0061927383714533    -8.88e-06  2.21e-04  1.10e-03  2.90e-04     0.4
    8    -268.0061922797661396     4.59e-07  8.14e-05  7.00e-04  5.63e-04     0.3
    9    -268.0061947269735469    -2.45e-06  6.34e-05  4.05e-04  1.59e-04     0.3
   10    -268.0061946176900278     1.09e-07  3.28e-05  2.50e-04  1.48e-04     0.3
   11    -268.0061950072532682    -3.90e-07  9.70e-06  7.34e-05  2.41e-05     0.3
   12    -268.0061950029594300     4.29e-09  5.45e-06  3.98e-05  3.03e-05     0.3
                 **** Energy Check signals convergence ****

               *****************************************************
               *                     SUCCESS                       *
               *           SCF CONVERGED AFTER  12 CYCLES          *
               *****************************************************

Recomputing exchange energy using gridx3       ... done (    0.498 sec)
Old exchange energy                            :     -6.800589182 Eh
New exchange energy                            :     -6.800622078 Eh
Exchange energy change after final integration :     -0.000032896 Eh
Total energy after final integration           :   -268.006227908 Eh
             **** ENERGY FILE WAS UPDATED (orca.en.tmp) ****

----------------
TOTAL SCF ENERGY
----------------

Total Energy       :       -268.00622790815112 Eh           -7292.82022 eV

Components:
Nuclear Repulsion  :        155.60769931486072 Eh            4234.30077 eV
Electronic Energy  :       -423.61389432712031 Eh          -11527.12009 eV
One Electron Energy:       -672.50927979681251 Eh          -18299.90785 eV
Two Electron Energy:        248.89538546969223 Eh            6772.78776 eV

Virial components:
Potential Energy   :       -533.66776386108540 Eh          -14521.83813 eV
Kinetic Energy     :        265.66153595293423 Eh            7229.01791 eV
Virial Ratio       :          2.00882586162429

DFT components:
N(Alpha)           :       19.999973126946 electrons
N(Beta)            :       19.999973126946 electrons
N(Total)           :       39.999946253893 electrons
E(X)               :      -27.052900543710 Eh       
E(C)               :       -1.587307906865 Eh       
E(XC)              :      -28.640208450575 Eh       

---------------
SCF CONVERGENCE
---------------

  Last Energy change         ...   -4.2938e-09  Tolerance :   1.0000e-08
  Last MAX-Density change    ...    3.9767e-05  Tolerance :   1.0000e-07
  Last RMS-Density change    ...    5.4486e-06  Tolerance :   5.0000e-09
  Last DIIS Error            ...    1.8945e-03  Tolerance :   5.0000e-07
  Last Orbital Gradient      ...    3.0328e-05  Tolerance :   1.0000e-05
  Last Orbital Rotation      ...    2.4342e-05  Tolerance :   1.0000e-05


----------------
ORBITAL ENERGIES
----------------

  NO   OCC          E(Eh)            E(eV) 
   0   2.0000     -19.193721      -522.2877 
   1   2.0000     -19.137698      -520.7632 
   2   2.0000     -10.324083      -280.9326 
   3   2.0000     -10.181297      -277.0472 
   4   2.0000     -10.179959      -277.0108 
   5   2.0000      -1.106960       -30.1219 
   6   2.0000      -1.017352       -27.6836 
   7   2.0000      -0.742758       -20.2115 
   8   2.0000      -0.662292       -18.0219 
   9   2.0000      -0.562360       -15.3026 
  10   2.0000      -0.521642       -14.1946 
  11   2.0000      -0.486711       -13.2441 
  12   2.0000      -0.457579       -12.4514 
  13   2.0000      -0.454577       -12.3697 
  14   2.0000      -0.411287       -11.1917 
  15   2.0000      -0.405015       -11.0210 
  16   2.0000      -0.347372        -9.4525 
  17   2.0000      -0.333074        -9.0634 
  18   2.0000      -0.293316        -7.9815 
  19   2.0000      -0.268141        -7.2965 
  20   0.0000      -0.003706        -0.1009 
  21   0.0000       0.014106         0.3839 
  22   0.0000       0.049618         1.3502 
  23   0.0000       0.092883         2.5275 
  24   0.0000       0.110057         2.9948 
  25   0.0000       0.118096         3.2135 
  26   0.0000       0.126524         3.4429 
  27   0.0000       0.195313         5.3147 
  28   0.0000       0.243573         6.6280 
  29   0.0000       0.266615         7.2550 
  30   0.0000       0.330139         8.9835 
*Only the first 10 virtual orbitals were printed.

                    ********************************
                    * MULLIKEN POPULATION ANALYSIS *
                    ********************************

-----------------------
MULLIKEN ATOMIC CHARGES
-----------------------
   0 H :    0.023024
   1 C :   -0.064887
   2 C :   -0.068649
   3 H :    0.043943
   4 H :    0.033739
   5 O :   -0.179410
   6 H :    0.180244
   7 O :   -0.239119
   8 C :    0.225656
   9 H :    0.021822
  10 H :    0.023637
Sum of atomic charges:   -0.0000000

--------------------------------
MULLIKEN REDUCED ORBITAL CHARGES
--------------------------------
  0 H s       :     0.953875  s :     0.953875
      pz      :     0.006239  p :     0.023100
      px      :     0.012248
      py      :     0.004613

  1 C s       :     3.131749  s :     3.131749
      pz      :     0.965503  p :     2.905941
      px      :     0.950210
      py      :     0.990228
      dz2     :     0.002884  d :     0.027198
      dxz     :     0.004662
      dyz     :     0.006034
      dx2y2   :     0.007751
      dxy     :     0.005867

  2 C s       :     3.130327  s :     3.130327
      pz      :     0.961940  p :     2.911057
      px      :     0.973773
      py      :     0.975344
      dz2     :     0.002845  d :     0.027264
      dxz     :     0.004491
      dyz     :     0.006355
      dx2y2   :     0.007810
      dxy     :     0.005764

  3 H s       :     0.932213  s :     0.932213
      pz      :     0.010013  p :     0.023844
      px      :     0.005815
      py      :     0.008017

  4 H s       :     0.942941  s :     0.942941
      pz      :     0.006611  p :     0.023319
      px      :     0.012125
      py      :     0.004583

  5 O s       :     3.685683  s :     3.685683
      pz      :     1.461425  p :     4.479671
      px      :     1.367946
      py      :     1.650301
      dz2     :     0.004252  d :     0.014057
      dxz     :     0.003473
      dyz     :     0.001465
      dx2y2   :     0.002161
      dxy     :     0.002704

  6 H s       :     0.754026  s :     0.754026
      pz      :     0.031242  p :     0.065730
      px      :     0.018964
      py      :     0.015523

  7 O s       :     3.764454  s :     3.764454
      pz      :     1.391802  p :     4.455837
      px      :     1.620545
      py      :     1.443490
      dz2     :     0.006267  d :     0.018828
      dxz     :     0.005088
      dyz     :     0.005362
      dx2y2   :     0.001168
      dxy     :     0.000943

  8 C s       :     3.079177  s :     3.079177
      pz      :     0.953543  p :     2.568150
      px      :     0.821629
      py      :     0.792978
      dz2     :     0.034580  d :     0.127018
      dxz     :     0.034197
      dyz     :     0.020106
      dx2y2   :     0.018522
      dxy     :     0.019613

  9 H s       :     0.959125  s :     0.959125
      pz      :     0.011507  p :     0.019052
      px      :     0.005103
      py      :     0.002443

 10 H s       :     0.953240  s :     0.953240
      pz      :     0.009674  p :     0.023123
      px      :     0.005134
      py      :     0.008315



                     *******************************
                     * LOEWDIN POPULATION ANALYSIS *
                     *******************************

----------------------
LOEWDIN ATOMIC CHARGES
----------------------
   0 H :    0.021228
   1 C :   -0.047987
   2 C :   -0.052731
   3 H :    0.025531
   4 H :    0.023233
   5 O :   -0.035895
   6 H :    0.096722
   7 O :   -0.170209
   8 C :    0.118103
   9 H :    0.000690
  10 H :    0.021316

-------------------------------
LOEWDIN REDUCED ORBITAL CHARGES
-------------------------------
  0 H s       :     0.912729  s :     0.912729
      pz      :     0.018356  p :     0.066043
      px      :     0.034959
      py      :     0.012728

  1 C s       :     2.893530  s :     2.893530
      pz      :     1.007044  p :     3.085008
      px      :     1.032023
      py      :     1.045940
      dz2     :     0.007488  d :     0.069450
      dxz     :     0.011171
      dyz     :     0.015511
      dx2y2   :     0.018753
      dxy     :     0.016527

  2 C s       :     2.892539  s :     2.892539
      pz      :     1.007247  p :     3.090473
      px      :     1.040793
      py      :     1.042433
      dz2     :     0.007398  d :     0.069719
      dxz     :     0.010817
      dyz     :     0.016263
      dx2y2   :     0.018874
      dxy     :     0.016367

  3 H s       :     0.905596  s :     0.905596
      pz      :     0.030028  p :     0.068873
      px      :     0.015992
      py      :     0.022853

  4 H s       :     0.909539  s :     0.909539
      pz      :     0.019540  p :     0.067228
      px      :     0.035289
      py      :     0.012398

  5 O s       :     3.436887  s :     3.436887
      pz      :     1.524606  p :     4.571589
      px      :     1.414327
      py      :     1.632656
      dz2     :     0.008101  d :     0.027419
      dxz     :     0.007111
      dyz     :     0.001855
      dx2y2   :     0.004038
      dxy     :     0.006313

  6 H s       :     0.732916  s :     0.732916
      pz      :     0.085754  p :     0.170362
      px      :     0.043967
      py      :     0.040641

  7 O s       :     3.552094  s :     3.552094
      pz      :     1.519003  p :     4.586234
      px      :     1.623227
      py      :     1.444004
      dz2     :     0.012176  d :     0.031880
      dxz     :     0.008643
      dyz     :     0.008141
      dx2y2   :     0.001419
      dxy     :     0.001502

  8 C s       :     2.866357  s :     2.866357
      pz      :     1.038857  p :     2.736098
      px      :     0.881300
      py      :     0.815941
      dz2     :     0.080724  d :     0.279441
      dxz     :     0.076752
      dyz     :     0.041747
      dx2y2   :     0.037027
      dxy     :     0.043192

  9 H s       :     0.933760  s :     0.933760
      pz      :     0.039777  p :     0.065550
      px      :     0.017029
      py      :     0.008744

 10 H s       :     0.912636  s :     0.912636
      pz      :     0.028172  p :     0.066048
      px      :     0.014810
      py      :     0.023066



                      *****************************
                      * MAYER POPULATION ANALYSIS *
                      *****************************

  NA   - Mulliken gross atomic population
  ZA   - Total nuclear charge
  QA   - Mulliken gross atomic charge
  VA   - Mayer's total valence
  BVA  - Mayer's bonded valence
  FA   - Mayer's free valence

  ATOM       NA         ZA         QA         VA         BVA        FA
  0 H      0.9770     1.0000     0.0230     0.9721     0.9721    -0.0000
  1 C      6.0649     6.0000    -0.0649     4.0074     4.0074    -0.0000
  2 C      6.0686     6.0000    -0.0686     4.0159     4.0159    -0.0000
  3 H      0.9561     1.0000     0.0439     1.0005     1.0005    -0.0000
  4 H      0.9663     1.0000     0.0337     0.9868     0.9868    -0.0000
  5 O      8.1794     8.0000    -0.1794     2.2534     2.2534    -0.0000
  6 H      0.8198     1.0000     0.1802     1.0332     1.0332    -0.0000
  7 O      8.2391     8.0000    -0.2391     2.2255     2.2255    -0.0000
  8 C      5.7743     6.0000     0.2257     4.2125     4.2125    -0.0000
  9 H      0.9782     1.0000     0.0218     1.0091     1.0091    -0.0000
 10 H      0.9764     1.0000     0.0236     0.9727     0.9727    -0.0000

  Mayer bond orders larger than 0.100000
B(  0-H ,  1-C ) :   0.9605 B(  1-C ,  2-C ) :   2.0698 B(  1-C ,  3-H ) :   0.9521 
B(  2-C ,  4-H ) :   0.9569 B(  2-C , 10-H ) :   0.9615 B(  5-O ,  6-H ) :   0.9484 
B(  5-O ,  8-C ) :   1.2275 B(  7-O ,  8-C ) :   2.0252 B(  8-C ,  9-H ) :   0.9291 


-------
TIMINGS
-------

Total SCF time: 0 days 0 hours 0 min 4 sec 

Total time                  ....       4.378 sec
Sum of individual times     ....       4.078 sec  ( 93.1%)

SCF preparation             ....       0.154 sec  (  3.5%)
Fock matrix formation       ....       3.757 sec  ( 85.8%)
  Startup                   ....       0.004 sec  (  0.1% of F)
  Split-RI-J                ....       0.291 sec  (  7.8% of F)
  Chain of spheres X        ....       2.790 sec  ( 74.3% of F)
  XC integration            ....       0.829 sec  ( 22.1% of F)
    XC Preparation          ....       0.000 sec  (  0.0% of XC)
    Basis function eval.    ....       0.252 sec  ( 30.4% of XC)
    Density eval.           ....       0.121 sec  ( 14.6% of XC)
    XC-Functional eval.     ....       0.066 sec  (  8.0% of XC)
    XC-Potential eval.      ....       0.129 sec  ( 15.6% of XC)
Diagonalization             ....       0.000 sec  (  0.0%)
Density matrix formation    ....       0.022 sec  (  0.5%)
Total Energy calculation    ....       0.013 sec  (  0.3%)
Population analysis         ....       0.010 sec  (  0.2%)
Orbital Transformation      ....       0.011 sec  (  0.3%)
Orbital Orthonormalization  ....       0.000 sec  (  0.0%)
DIIS solution               ....       0.062 sec  (  1.4%)
SOSCF solution              ....       0.048 sec  (  1.1%)
Finished LeanSCF after   4.4 sec

Maximum memory used throughout the entire LEANSCF-calculation: 8.5 MB


-------------------------------------------------------------------------------
                          DFT DISPERSION CORRECTION                            
                                                                               
                              DFTD3 V3.1  Rev 1                                
                          USING Becke-Johnson damping                          
-------------------------------------------------------------------------------
The B3LYP functional is recognized
Active option DFTDOPT                   ...         4   

molecular C6(AA) [au] = 1048.385148 


            DFT-D V3
 parameters
 s6 scaling factor         :     1.0000 
 a1 scaling factor         :     0.3981 
 s8 scaling factor         :     1.9889 
 a2 scaling factor         :     4.4211 
 ad hoc parameters k1-k3   :    16.0000     1.3333    -4.0000 

 Edisp/kcal,au: -6.197294719531  -0.009876016721 
 E6   /kcal   :  -3.079052546 
 E8   /kcal   :  -3.118242174 
 % E8         :  50.316183350 

-------------------------   ----------------
Dispersion correction           -0.009876017
-------------------------   ----------------


-------------------------   --------------------
FINAL SINGLE POINT ENERGY      -268.016103924872
-------------------------   --------------------



           ************************************************************
           *        Program running with 6 parallel MPI-processes     *
           *              working on a common directory               *
           ************************************************************
------------------------------------------------------------------------------
                         ORCA SCF GRADIENT CALCULATION
------------------------------------------------------------------------------

Nuc. rep. gradient        (SHARK) ... done (  0.0 sec)
HCore & Overlap gradient  (SHARK) ... done (  0.0 sec)
Split-RIJ-J gradient      (SHARK) ... done (  0.2 sec)
done (  1.7 sec)
XC gradient                       ... done (  0.4 sec)
Dispersion correction             ... done (  0.1 sec)

-------------------
DISPERSION GRADIENT
-------------------

   1   H   :    0.000126226   -0.000038030   -0.000011830
   2   C   :    0.000462151    0.000131395   -0.000037304
   3   C   :    0.000285767    0.000365037   -0.000113791
   4   H   :    0.000217780   -0.000020214    0.000070660
   5   H   :    0.000045414    0.000242839   -0.000019954
   6   O   :   -0.000112661   -0.000072517   -0.000010474
   7   H   :   -0.000078033   -0.000044197    0.000014555
   8   O   :   -0.000289651   -0.000187685    0.000242119
   9   C   :   -0.000481926   -0.000333481    0.000022957
  10   H   :   -0.000192472   -0.000156215   -0.000095433
  11   H   :    0.000017406    0.000113068   -0.000061504

Difference to translation invariance:
           :   -0.0000000000    0.0000000000   -0.0000000000

Difference to rotation invariance:
           :    0.0000000000    0.0000000000   -0.0000000000

Norm of the Dispersion gradient    ...    0.0011078619
RMS gradient                       ...    0.0001928540
MAX gradient                       ...    0.0004819257

------------------
CARTESIAN GRADIENT
------------------

   1   H   :   -0.000084757    0.000077419    0.000054626
   2   C   :    0.000032536   -0.000037706   -0.000034838
   3   C   :    0.000043519    0.000031817    0.000021414
   4   H   :    0.000041463    0.000010581    0.000044208
   5   H   :    0.000098814   -0.000014110   -0.000052685
   6   O   :    0.000039359    0.000035151   -0.000016996
   7   H   :    0.000032606    0.000006551    0.000061638
   8   O   :    0.000023981   -0.000062456    0.000023932
   9   C   :   -0.000169281   -0.000061075   -0.000135258
  10   H   :   -0.000041253    0.000008319    0.000057763
  11   H   :   -0.000016987    0.000005508   -0.000023805

Difference to translation invariance:
           :    0.0000000001    0.0000000000    0.0000000000

Difference to rotation invariance:
           :    0.0000174773    0.0000519233   -0.0000072527

Norm of the Cartesian gradient     ...    0.0003308268
RMS gradient                       ...    0.0000575896
MAX gradient                       ...    0.0001692810

-------
TIMINGS
-------

Total SCF gradient time     ....        2.345 sec

Densities                   ....       0.000 sec  (  0.0%)
One electron gradient       ....       0.020 sec  (  0.8%)
RI-J Coulomb gradient       ....       0.157 sec  (  6.7%)
COSX gradient               ....       1.723 sec  ( 73.5%)
XC gradient                 ....       0.391 sec  ( 16.7%)

Maximum memory used throughout the entire SCFGRAD-calculation: 26.9 MB


           ************************************************************
           *        Program running with 6 parallel MPI-processes     *
           *              working on a common directory               *
           ************************************************************

------------------------------------------------------------------------------
                              ORCA PROPERTY CALCULATIONS
------------------------------------------------------------------------------

GBWName                                 ... orca.gbw
Number of atoms                         ...     11
Number of basis functions               ...    100
Max core memory                         ...   4096 MB

Electric properties:
Dipole moment                           ... YES
Quadrupole moment                       ...  NO
Static polarizability (Dipole/Dipole)   ...  NO
Static polarizability (Dipole/Quad.)    ...  NO
Static polarizability (Quad./Quad.)     ...  NO
Static polarizability (Velocity)        ...  NO
Static hyperpolarizability              ...  NO

Atomic electric properties:
Dipole moment                           ...  NO
Quadrupole moment                       ...  NO
Static polarizability                   ...  NO

Choice of electric origin               ... Center of mass
Position of electric origin             ...    -0.106274    -0.485517     0.354221

General magnetic properties:
Magnetizability                         ...  NO

EPR properties:
g-Tensor (aka g-matrix)                 ...  NO
Zero-Field splitting spin-orbit         ...  NO
Zero-field splitting spin-spin          ...  NO
Hyperfine couplings                     ...  NO (   0 nuclei)
Quadrupole couplings                    ...  NO (   0 nuclei)
Contact density                         ...  NO (   0 nuclei)

NMR properties:
Chemical shifts                         ...  NO (   0 nuclei)
Spin-rotation constants                 ...  NO (   0 nuclei)
Spin-spin couplings                     ...  NO (   0 nuclei,    0 pairs)

Choice of magnetic origin               ... GIAO
Position of magnetic origin             ...     0.000000     0.000000     0.000000

Properties with geometric perturbations:
SCF Hessian                             ...  NO
IR spectrum                             ...  NO
VCD spectrum                            ...  NO
X-ray spectroscopy properties:
SCF XES/XAS/RIXS spectra                ...  NO

SCF SOC stabilization energy            ...  NO
Diagonal Born-Oppenheimer correction    ...  NO

-------------
DIPOLE MOMENT
-------------

Method             : SCF
Type of density    : Electron Density
Multiplicity       :   1
Irrep              :   0
Energy             :  -268.0062279081511178 Eh
Basis              : AO
                                X                 Y                 Z
Electronic contribution:     -5.137673429      -3.288747631       1.697650648
Nuclear contribution   :      4.686571573       2.986094467      -1.961158823
                        -----------------------------------------
Total Dipole Moment    :     -0.451101856      -0.302653164      -0.263508175
                        -----------------------------------------
Magnitude (a.u.)       :      0.603761858
Magnitude (Debye)      :      1.534640682



--------------------
Rotational spectrum 
--------------------
 
Rotational constants in cm-1:             0.417232             0.055483             0.053541 
Rotational constants in MHz :         12508.312140          1663.340092          1605.103830 

Dipole components along the rotational axes: 
x,y,z [a.u.] :    -0.506544    -0.308399    -0.113279 
x,y,z [Debye]:    -1.287532    -0.783887    -0.287931 

 

Dipole moment calculation done in   0.0 sec 

Maximum memory used throughout the entire PROP-calculation: 5.0 MB

--------------------------------
SUGGESTED CITATIONS FOR THIS RUN
--------------------------------

Below you find a list of papers that are relevant to this ORCA run
We neither can nor want to force you to cite these papers, but we appreciate if you do
You receive ORCA, which is the product of decades of hard work by many enthusiastic individuals, for free
The only thing we kindly ask in return is that you cite our papers,
We deeply appreciate it, if you show your appreciation for ORCA by not just citing the generic ORCA reference.

Please note that relegating all ORCA citations to the supporting information does *not* help us.
SI sections are not indexed - citations you put there will not count into any citation statistics
But we need these citations in order to attract the funding resources that allow us to do what we are doing

Therefore, if you are a happy ORCA user, please consider citing a few of the papers listed below in the main body of your paper

In addition to the list printed below, the program has created the file orca.bibtex that contains the list in bibtex format
You can import this file easily into all common literature databanks and citation aid programs


List of essential papers. We consider these as the minimum necessary citations

  1. Neese, F.
     Software update: the ORCA program system, version 6.0
     WIRES Comput. Molec. Sci. 2025 15(1), e70019
     doi.org/10.1002/wcms.7019

List of papers to cite with high priority. The work reported in these papers was absolutely
necessary for this run to complete.
Our perspective: the developers of density functionals and basis sets usually get cited in chemistry papers
Good! But without the algorithms to do something with them, the functionals or basis sets would not do anything.
Hence, in our opinion, the algorithm design and method developments papers are equally worthy of getting cited

  1. Neese, F.
     An improvement of the resolution of the identity approximation for the formation of the Coulomb matrix
     J. Comp. Chem. 2003 24(14), 1740-1747
     doi.org/10.1002/jcc.10318
  2. Neese, F.; Wennmohs, F.; Hansen, A.; Becker, U.
     Efficient, approximate and parallel Hartree-Fock and hybrid DFT calculations. A 'chain-of-spheres' algorithm for the Hartree-Fock exchange
     Chem. Phys. 2009 356(1-3), 98-109
     doi.org/10.1016/j.chemphys.2008.10.036
  3. Grimme, S.; Antony, J.; Ehrlich, S.; Krieg, H.
     A consistent and accurate ab initio parametrization of density functional dispersion correction (DFT-D) for the 94 elements H-Pu
     J. Chem. Phys. 2010 132 , 154104
     doi.org/10.1063/1.3382344
  4. Grimme, S.; Ehrlich, S.; Goerigk, L.
     Effect of the damping function in dispersion corrected density functional theory
     J. Comput. Chem. 2011 32(7), 1456-1465
     doi.org/10.1002/jcc.21759
  5. Helmich-Paris, B.; de Souza, B.; Neese, F.; Izsák, R.
     An improved chain of spheres for exchange algorithm
     J. Chem. Phys. 2021 155(10), 104109
     doi.org/10.1063/5.0058766
  6. Neese, F.
     The SHARK Integral Generation and Digestion System
     J. Comp. Chem. 2022 44(3), 381
     doi.org/10.1002/jcc.26942

List of suggested additional citations. These are papers that are important in the 'surrounding' of 
of this run, or papers that preceded the highly important papers. If you like your results we are grateful for a citation.

  1. Izsak, R.; Neese, F.
     An overlap fitted chain of spheres exchange method
     J. Chem. Phys. 2011 135 , 144105
     doi.org/10.1063/1.3646921
  2. Izsak, R.; Hansen, A.; Neese, F.
     The resolution of identity and chain of spheres approximations for the LPNO-CCSD singles Fock term
     Molec. Phys. 2012 110 , 2413-2417
     doi.org/10.1080/00268976.2012.687466
  3. Neese, F.
     The ORCA program system
     WIRES Comput. Molec. Sci. 2012 2(1), 73-78
     doi.org/10.1002/wcms.81
  4. Izsak, R.; Neese, F.; Klopper, W.
     Robust fitting techniques in the chain of spheres approximation to the Fock exchange: The role of the complementary space
     J. Chem. Phys. 2013 139 , 
     doi.org/10.1063/1.4819264
  5. Neese, F.
     Software update: the ORCA program system, version 4.0
     WIRES Comput. Molec. Sci. 2018 8(1), 1-6
     doi.org/10.1002/wcms.1327
  6. Neese, F.; Wennmohs, F.; Becker, U.; Riplinger, C.
     The ORCA quantum chemistry program package
     J. Chem. Phys. 2020 152(22), 224108
     doi.org/10.1063/5.0004608
  7. Neese, F.
     Software update: The ORCA program system—Version 5.0
     WIRES Comput. Molec. Sci. 2022 12(1), e1606
     doi.org/10.1002/wcms.1606

List of optional additional citations

  1. Neese, F.
     Approximate second-order SCF convergence for spin unrestricted wavefunctions
     Chem. Phys. Lett. 2000 325(1-3), 93-98
     doi.org/10.1016/s0009-2614(00)00662-x

Timings for individual modules:

Sum of individual times          ...        9.737 sec (=   0.162 min)
Startup calculation              ...        1.237 sec (=   0.021 min)  12.7 %
SCF iterations                   ...        5.267 sec (=   0.088 min)  54.1 %
Property calculations            ...        0.423 sec (=   0.007 min)   4.3 %
SCF Gradient evaluation          ...        2.809 sec (=   0.047 min)  28.8 %
                             ****ORCA TERMINATED NORMALLY****
TOTAL RUN TIME: 0 days 0 hours 0 minutes 10 seconds 296 msec
