
                                 *****************
                                 * O   R   C   A *
                                 *****************

                                            #,                                       
                                            ###                                      
                                            ####                                     
                                            #####                                    
                                            ######                                   
                                           ########,                                 
                                     ,,################,,,,,                         
                               ,,#################################,,                 
                          ,,##########################################,,             
                       ,#########################################, ''#####,          
                    ,#############################################,,   '####,        
                  ,##################################################,,,,####,       
                ,###########''''           ''''###############################       
              ,#####''   ,,,,##########,,,,          '''####'''          '####       
            ,##' ,,,,###########################,,,                        '##       
           ' ,,###''''                  '''############,,,                           
         ,,##''                                '''############,,,,        ,,,,,,###''
      ,#''                                            '''#######################'''  
     '                                                          ''''####''''         
             ,#######,   #######,   ,#######,      ##                                
            ,#'     '#,  ##    ##  ,#'     '#,    #''#        ,####,    ,#,          
            ##       ##  ##   ,#'  ##            #'  '#       #'       ,# #          
            ##       ##  #######   ##           ,######,      #####,      #          
            '#,     ,#'  ##    ##  '#,     ,#' ,#      #,     #,   #      #          
             '#######'   ##     ##  '#######'  #'      '#     '####' #    #          



                #########################################################
                #                        -***-                          #
                #          Department of theory and spectroscopy        #
                #                                                       #
                #                      Frank Neese                      #
                #                                                       #
                #     Directorship, Architecture, Infrastructure        #
                #                    SHARK, DRIVERS                     #
                #        Core code/Algorithms in most modules           #
                #                                                       #
                #        Max Planck Institute fuer Kohlenforschung      #
                #                Kaiser Wilhelm Platz 1                 #
                #                 D-45470 Muelheim/Ruhr                 #
                #                      Germany                          #
                #                                                       #
                #                  All rights reserved                  #
                #                        -***-                          #
                #########################################################


                         Program Version 6.1.0  -  RELEASE   -
                                (GIT: $679e74b$)
                          ($2025-06-10 18:02:51 +0200$)


 With contributions from (in alphabetic order):
[Max-Planck-Institut fuer Kohlenforschung]                               
  Daniel Aravena         : Magnetic Suceptibility                        
  Michael Atanasov       : Ab Initio Ligand Field Theory (pilot matlab implementation)
  Alexander A. Auer      : GIAO ZORA, VPT2 properties, NMR spectrum      
  Ute Becker             : All parallelization in ORCA, NUMFREQ, NUMCALC 
  Giovanni Bistoni       : ED, misc. LED, open-shell LED, HFLD           
  Dmytro Bykov           : pre 5.0 version of the SCF Hessian            
  Marcos Casanova-Páez   : Triplet and SCS-CIS(D). UHF-(DLPNO)-IP/EA/STEOM-CCSD. UHF-CVS-IP/STEOM-CCSD   
  Vijay G. Chilkuri      : MRCI spin determinant printing, contributions to CSF-ICE 
  Pauline Colinet        : FMM embedding                                 
  Dipayan Datta          : RHF DLPNO-CCSD density                        
  Achintya Kumar Dutta   : EOM-CC, STEOM-CC                              
  Nicolas Foglia         : Exact transition moments, OPA infrastructure, MCD improvements    
  Dmitry Ganyushin       : Spin-Orbit,Spin-Spin,Magnetic field MRCI      
  Miquel Garcia-Rates    : C-PCM and meta-GGA Hessian, CCSD/C-PCM, Gaussian charge scheme 
  Tiago L. C. Gouveia    : GS-ROHF, GS-ROCIS                             
  Yang Guo               : DLPNO-NEVPT2, F12-NEVPT2, CIM, IAO-localization        
  Andreas Hansen         : Spin unrestricted coupled pair/coupled cluster methods 
  Ingolf Harden          : AUTO-CI MPn and infrastructure                
  Benjamin Helmich-Paris : MC-RPA, TRAH-(SCF,CASSCF), AVAS, COSX integrals, SCF dyn. polar., MC-PDFT, srDFT 
  Lee Huntington         : MR-EOM, pCC                                   
  Robert Izsak           : Overlap fitted RIJCOSX, COSX-SCS-MP3, EOM     
  Riya Kayal             : Wick's Theorem for AUTO-CI, AUTO-CI UHF-CCSDT 
  Emily Kempfer          : AUTO-CI RHF CISDT and CCSDT, approximate NEVPT4
  Christian Kollmar      : KDIIS, OOCD, Brueckner-CCSD(T), CCSD density, CASPT2, CASPT2-K, improved NEVPT2 
  Axel Koslowski         : Symmetry handling                             
  Simone Kossmann        : meta-GGA functionals, TD-DFT gradient, OOMP2, (MP2 Hessian; deprecated post 5.0) 
  Lucas Lang             : DCDCAS, Hyperfine gauge corrections, ICE-SOC+SSC
  Marvin Lechner         : AUTO-CI (C++ implementation), FIC-MRCC        
  Spencer Leger          : CASSCF response                               
  Dagmar Lenk            : GEPOL surface, SMD, ORCA-2-JSON               
  Dimitrios Liakos       : Extrapolation schemes; Compound Job, Property file
  Dimitrios Manganas     : Further ROCIS development; embedding schemes. LFT, Crystal Embedding 
  Dimitrios Pantazis     : SARC Basis sets                               
  Anastasios Papadopoulos: AUTO-CI, single reference methods and gradients 
  Taras Petrenko         : pre 6.0 DFT Hessian and TD-DFT gradient,  ECA, NRVS 
  Petra Pikulova         : Analytic Raman intensities                    
  Peter Pinski           : DLPNO-MP2, DLPNO-MP2 Gradient                 
  Shashank Vittal Rao    : ES-AILFT, MagRelax                            
  Christoph Reimann      : Effective Core Potentials                     
  Marius Retegan         : Local ZFS, SOC                                
  Christoph Riplinger    : Optimizer, TS searches, QM/MM, DLPNO-CCSD(T), (RO)-DLPNO pert. Triples 
  Michael Roemelt        : Original ROCIS implementation, recursive CI coupling coefficients
  Masaaki Saitow         : Open-shell DLPNO-CCSD energy and density      
  Barbara Sandhoefer     : DKH picture change effects                    
  Yorick L. A. Schmerwitz: GMF and freeze-and-release deltaSCF, NEB S-IDPP initial path                    
  Kantharuban Sivalingam : CASSCF convergence/infrastructure, NEVPT2, NEVPT3, NEVPT4(SD), FIC-MRCI and CEPA variants
  Bernardo de Souza      : ESD, SOC TD-DFT                               
  Georgi L. Stoychev     : AutoAux, RI-MP2 NMR, DLPNO-MP2 response, X2C  
  Van Anh Tran           : RI-MP2 g-tensors                              
  Willem Van den Heuvel  : Paramagnetic NMR                              
  Zikuan Wang            : NOTCH, Electric field optimization            
  Frank Wennmohs         : Technical directorship and infrastructure     
  Hang Xu                : AUTO-CI-Response properties                   
                                                                         
[FACCTs GmbH]                                                            
  Markus Bursch, Nicolas Foglia, Miquel Garcia-Rates, Ingolf Harden, Hagen Neugebauer, Anastasios Papadopoulos, 
  Christoph Riplinger, Bernardo de Souza, Georgi L. Stoychev                                                    
                                                                 
  APM, various basis sets, CI-OPT, improved COSX, DLPNO-Multilevel,           
  DOCKER, DRACO, updates on ESD, Fragmentator, GOAT, IRC, LR-CPCM, L-BFGS, MBIS, meta-GGA TD-DFT gradient, ML-optimized integration grids, 
  MM, NACMEs, nearIR, NEB, NEB-TS, NL-DFT gradient (VV10), 2- and 3-layer-ONIOM, interface openCOSMO-RS, QMMM,   
  Crystal-QMMM, RESP, rigid body optimization, SF, symmetry and pop. for TD-DFT, various functionals, SOLVATOR                                   
                                                                         
[Other institutions]                                                     
  V. Asgeirsson          : NEB                                           
  Christoph Bannwarth    : sTDA-DFT, sTD-DFT, PBEh-3c, B97-3c, D3        
  Giovanni Bistoni       : ETS/NOCV, ADLD/ADEX, COVALED                  
  Martin Brehm           : Molecular dynamics                            
  Ronald Cardenas        : ETS/NOCV                                      
  Martina Colucci        : COVALED                                       
  Sebastian Ehlert       : rSCAN, r2SCAN, r2SCAN-3c, D4, dhf basis sets  
  Marvin Friede          : D4 for Fr, Ra, Ac-Lr                          
  Lars Goerigk           : TD-DFT with DH, B97 family of functionals     
  Stefan Grimme          : VdW corrections, initial TS optimization, DFT functionals, gCP, sTDA/sTD-DF 
  Waldemar Hujo          : DFT-NL                                        
  H. Jonsson             : NEB                                           
  Holger Kruse           : gCP                                           
  Marcel Mueller         : wB97X-3c, vDZP basis set                      
  Hagen Neugebauer       : wr2SCAN, Native XTB                           
  Gianluca Regni         : ADLD/ADEX                                     
  Tobias Risthaus        : pre 6.0 range-separated hybrid DFT and stability analysis
  Lukas Wittmann         : regularized MP2, r2SCAN double-hybrids, wr2SCAN        
                                                                         
We gratefully acknowledge several colleagues who have allowed us to      
interface, adapt or use parts of their codes:                            
  Ed Valeev, F. Pavosevic, A. Kumar             : LibInt (2-el integral package), F12 methods 
  Garnet Chan, S. Sharma, J. Yang, R. Olivares  : DMRG                   
  Ulf Ekstrom                                   : XCFun DFT Library      
  Mihaly Kallay                                 : mrcc  (arbitrary order and MRCC methods)
  Frank Weinhold                                : gennbo (NPA and NBO analysis)           
  Simon Mueller                                 : openCOSMO-RS                            
  Christopher J. Cramer and Donald G. Truhlar   : smd solvation model                     
  S Lehtola, MJT Oliveira, MAL Marques          : LibXC Library                           
  Liviu Ungur et al                             : ANISO software                          


 Your calculation uses the libint2 library for the computation of 2-el integrals
 For citations please refer to: http://libint.valeyev.net

 Your ORCA version has been built with support for libXC version: 7.0.0
 For citations please refer to: https://libxc.gitlab.io

 This ORCA versions uses:
   CBLAS   interface :  Fast vector & matrix operations
   LAPACKE interface :  Fast linear algebra routines
   SCALAPACK package :  Parallel linear algebra routines
   Shared memory     :  Shared parallel matrices
   BLAS/LAPACK       :  OpenBLAS 0.3.29  USE64BITINT DYNAMIC_ARCH NO_AFFINITY Zen SINGLE_THREADED
        Core in use  :  Zen
   Copyright (c) 2011-2014, The OpenBLAS Project


  ***********************************
  * Starting time: Wed Sep 10 13:40:05 2025
  * Host name:     wyk-Server
  * Process ID:    2317345
  * Working dir.:  /home/wyk/Documents/code/openQDC/MGMR/singlepointcalc/121/sp
  ***********************************

Your calculation utilizes the atom-pairwise dispersion correction
with the Becke-Johnson damping scheme (D3BJ)


Warning: RI is on but no J-basis has been assigned. Assigning Def2/J (nothing to worry about!)
================================================================================

----- Orbital basis set information -----
Your calculation utilizes the basis: def2-SVP
   F. Weigend and R. Ahlrichs, Phys. Chem. Chem. Phys. 7, 3297 (2005).

----- AuxJ basis set information -----
Your calculation utilizes the auxiliary basis: def2/J
   H-Rn: F. Weigend, Phys. Chem. Chem. Phys. 8, 1057 (2006).
   Fr-Lr: K. Eichkorn, F. Weigend, O. Treutler, R. Ahlrichs; Theor. Chem. Acc. 97, 119 (1997).

================================================================================
                                        WARNINGS
                       Please study these warnings very carefully!
================================================================================


================================================================================
                                       INPUT FILE
================================================================================
NAME = orca.inp
|  1> ! B3LYP def2-SVP d3 EnGrad 
|  2> %pal nprocs 6 end 
|  3> *xyz 0 1 
|  4> N   1.25000214044382 -1.27972800997024 -0.04168204524008
|  5> B   1.04659253299832 0.19397775478648 -0.59632592734836
|  6> B   -0.91393686711475 0.26269517581186 0.33685327058425
|  7> N   -2.03036122895122 1.22204319603859 0.43827021885093
|  8> H   0.362125524022 -1.46495033245128 0.50330074934251
|  9> H   2.0485761299306 -1.36798070672623 0.58883857458246
| 10> H   1.32959019553635 -1.98119072776428 -0.77963355104233
| 11> H   0.14533805810326 0.68433088903026 0.83635986380553
| 12> H   1.8470429095992 0.96251560993174 -0.11132867672619
| 13> H   1.015753248003 0.21680037274364 -1.80663909254918
| 14> H   -0.67083000276189 -0.08344587981102 -0.83432639715827
| 15> H   -1.00485362446353 -0.8745478494034 0.90380982539767
| 16> H   -2.54677862643493 1.43748465392747 -0.40725589944338
| 17> H   -1.87826038891025 2.07199585385639 0.96975908694445
| 18> *
| 19> 
| 20>                          ****END OF INPUT****
================================================================================

                     *******************************
                     * Energy+Gradient Calculation *
                     *******************************

---------------------------------
CARTESIAN COORDINATES (ANGSTROEM)
---------------------------------
  N      1.250002   -1.279728   -0.041682
  B      1.046593    0.193978   -0.596326
  B     -0.913937    0.262695    0.336853
  N     -2.030361    1.222043    0.438270
  H      0.362126   -1.464950    0.503301
  H      2.048576   -1.367981    0.588839
  H      1.329590   -1.981191   -0.779634
  H      0.145338    0.684331    0.836360
  H      1.847043    0.962516   -0.111329
  H      1.015753    0.216800   -1.806639
  H     -0.670830   -0.083446   -0.834326
  H     -1.004854   -0.874548    0.903810
  H     -2.546779    1.437485   -0.407256
  H     -1.878260    2.071996    0.969759

----------------------------
CARTESIAN COORDINATES (A.U.)
----------------------------
  NO LB      ZA    FRAG     MASS         X           Y           Z
   0 N     7.0000    0    14.007    2.362162   -2.418335   -0.078768
   1 B     5.0000    0    10.810    1.977773    0.366565   -1.126893
   2 B     5.0000    0    10.810   -1.727090    0.496422    0.636560
   3 N     7.0000    0    14.007   -3.836827    2.309327    0.828211
   4 H     1.0000    0     1.008    0.684318   -2.768355    0.951101
   5 H     1.0000    0     1.008    3.871248   -2.585109    1.112744
   6 H     1.0000    0     1.008    2.512561   -3.743908   -1.473294
   7 H     1.0000    0     1.008    0.274649    1.293198    1.580491
   8 H     1.0000    0     1.008    3.490405    1.818891   -0.210381
   9 H     1.0000    0     1.008    1.919495    0.409693   -3.414053
  10 H     1.0000    0     1.008   -1.267685   -0.157690   -1.576648
  11 H     1.0000    0     1.008   -1.898898   -1.652656    1.707953
  12 H     1.0000    0     1.008   -4.812714    2.716452   -0.769602
  13 H     1.0000    0     1.008   -3.549398    3.915505    1.832579

--------------------------------
INTERNAL COORDINATES (ANGSTROEM)
--------------------------------
 N      0   0   0     0.000000000000     0.00000000     0.00000000
 B      1   0   0     1.587707147253     0.00000000     0.00000000
 B      2   1   0     2.172376815406    89.70892059     0.00000000
 N      3   2   1     1.475478694191   137.13494398   181.00962726
 H      1   2   3     1.058129690125   103.58572561   358.78006562
 H      1   2   3     1.021305638480   113.33154869   240.99652430
 H      1   2   3     1.021252479989   113.27234549   116.12286534
 H      3   2   1     1.244727632267    54.20258655    94.40021402
 H      2   1   3     1.211029963834   111.37464723   115.61293379
 H      2   1   3     1.210921092082   111.71055022   244.23162362
 H      3   2   1     1.245221422887    53.91322871   266.98222058
 H      3   2   1     1.273980882986   103.14030542     0.65816439
 H      4   3   2     1.013911419661   117.78948018    67.16367045
 H      4   3   2     1.013920412547   117.87668282   292.11697977

---------------------------
INTERNAL COORDINATES (A.U.)
---------------------------
 N      0   0   0     0.000000000000     0.00000000     0.00000000
 B      1   0   0     3.000331689178     0.00000000     0.00000000
 B      2   1   0     4.105197240798    89.70892059     0.00000000
 N      3   2   1     2.788250648456   137.13494398   181.00962726
 H      1   2   3     1.999575328508   103.58572561   358.78006562
 H      1   2   3     1.929987955757   113.33154869   240.99652430
 H      1   2   3     1.929887500768   113.27234549   116.12286534
 H      3   2   1     2.352194336308    54.20258655    94.40021402
 H      2   1   3     2.288514971618   111.37464723   115.61293379
 H      2   1   3     2.288309233823   111.71055022   244.23162362
 H      3   2   1     2.353127465348    53.91322871   266.98222058
 H      3   2   1     2.407474968694   103.14030542     0.65816439
 H      4   3   2     1.916014907215   117.78948018    67.16367045
 H      4   3   2     1.916031901307   117.87668282   292.11697977

---------------------
BASIS SET INFORMATION
---------------------
There are 3 groups of distinct atoms

 Group   1 Type N   : 7s4p1d contracted to 3s2p1d pattern {511/31/1}
 Group   2 Type B   : 7s4p1d contracted to 3s2p1d pattern {511/31/1}
 Group   3 Type H   : 4s1p contracted to 2s1p pattern {31/1}

Atom   0N    basis set group =>   1
Atom   1B    basis set group =>   2
Atom   2B    basis set group =>   2
Atom   3N    basis set group =>   1
Atom   4H    basis set group =>   3
Atom   5H    basis set group =>   3
Atom   6H    basis set group =>   3
Atom   7H    basis set group =>   3
Atom   8H    basis set group =>   3
Atom   9H    basis set group =>   3
Atom  10H    basis set group =>   3
Atom  11H    basis set group =>   3
Atom  12H    basis set group =>   3
Atom  13H    basis set group =>   3
---------------------------------
AUXILIARY/J BASIS SET INFORMATION
---------------------------------
There are 3 groups of distinct atoms

 Group   1 Type N   : 12s5p4d2f1g contracted to 6s4p3d1f1g pattern {711111/2111/211/2/1}
 Group   2 Type B   : 12s5p4d2f1g contracted to 6s4p3d1f1g pattern {711111/2111/211/2/1}
 Group   3 Type H   : 5s2p1d contracted to 3s1p1d pattern {311/2/1}

Atom   0N    basis set group =>   1
Atom   1B    basis set group =>   2
Atom   2B    basis set group =>   2
Atom   3N    basis set group =>   1
Atom   4H    basis set group =>   3
Atom   5H    basis set group =>   3
Atom   6H    basis set group =>   3
Atom   7H    basis set group =>   3
Atom   8H    basis set group =>   3
Atom   9H    basis set group =>   3
Atom  10H    basis set group =>   3
Atom  11H    basis set group =>   3
Atom  12H    basis set group =>   3
Atom  13H    basis set group =>   3


           ************************************************************
           *        Program running with 6 parallel MPI-processes     *
           *              working on a common directory               *
           ************************************************************
------------------------------------------------------------------------------
                             ORCA STARTUP CALCULATIONS
                           -- RI-GTO INTEGRALS CHOSEN --
------------------------------------------------------------------------------
------------------------------------------------------------------------------
                   ___                                                        
                  /   \      - P O W E R E D   B Y -                         
                 /     \                                                     
                 |  |  |   _    _      __       _____    __    __             
                 |  |  |  | |  | |    /  \     |  _  \  |  |  /  |          
                  \  \/   | |  | |   /    \    | | | |  |  | /  /          
                 / \  \   | |__| |  /  /\  \   | |_| |  |  |/  /          
                |  |  |   |  __  | /  /__\  \  |    /   |      \           
                |  |  |   | |  | | |   __   |  |    \   |  |\   \          
                \     /   | |  | | |  |  |  |  | |\  \  |  | \   \       
                 \___/    |_|  |_| |__|  |__|  |_| \__\ |__|  \__/        
                                                                              
                      - O R C A' S   B I G   F R I E N D -                    
                                      &                                       
                       - I N T E G R A L  F E E D E R -                       
                                                                              
 v1 FN, 2020, v2 2021, v3 2022-2024                                           
------------------------------------------------------------------------------


----------------------
SHARK INTEGRAL PACKAGE
----------------------

Number of atoms                             ...     14
Number of basis functions                   ...    106
Number of shells                            ...     54
Maximum angular momentum                    ...      2
Integral batch strategy                     ... SHARK/LIBINT Hybrid
RI-J (if used) integral strategy            ... SPLIT-RIJ (Revised 2003 algorithm where possible)
Printlevel                                  ...      1
Contraction scheme used                     ... SEGMENTED contraction
Prescreening option                         ... SCHWARTZ
   Thresh                                   ... 2.500e-11
   Tcut                                     ... 2.500e-12
   Tpresel                                  ... 2.500e-12 
Coulomb Range Separation                    ... NOT USED
Exchange Range Separation                   ... NOT USED
Multipole approximations                    ... NOT USED
Finite Nucleus Model                        ... NOT USED
CABS basis                                  ... NOT available
Auxiliary Coulomb fitting basis             ... AVAILABLE
   # of basis functions in Aux-J            ...    306
   # of shells in Aux-J                     ...    110
   Maximum angular momentum in Aux-J        ...      4
Auxiliary J/K fitting basis                 ... NOT available
Auxiliary Correlation fitting basis         ... NOT available
Auxiliary 'external' fitting basis          ... NOT available

Checking pre-screening integrals            ... done (  0.0 sec) Dimension = 54
   => SHARK Basis and OBASIS are compatible. Storing Pre-screening
Shell pair information
Shell pair cut-off parameter TPreSel        ...   2.5e-12
Total number of shell pairs                 ...      1485
Shell pairs after pre-screening             ...      1445
Total number of primitive shell pairs       ...      4933
Primitive shell pairs kept                  ...      3892
          la=0 lb=0:    519 shell pairs
          la=1 lb=0:    559 shell pairs
          la=1 lb=1:    163 shell pairs
          la=2 lb=0:    126 shell pairs
          la=2 lb=1:     68 shell pairs
          la=2 lb=2:     10 shell pairs

Checking whether 4 symmetric matrices of dimension 106 fit in memory
:Max Core in MB      =   4096.00
 MB in use           =      5.11
 MB left             =   4090.89
 MB needed           =      0.17
 Data fit in memory  = YES
Calculating RI/J V-Matrix + Cholesky decomp.... done (  0.0 sec)
Calculating Nuclear repulsion               ... done (  0.0 sec) ENN=    121.198756836622 Eh

Diagonalization of the overlap matrix:
Smallest eigenvalue                        ... 2.421e-03
Time for diagonalization                   ...    0.002 sec
Threshold for overlap eigenvalues          ... 1.000e-07
Number of eigenvalues below threshold      ... 0
Time for construction of square roots      ...    0.001 sec
Total time needed                          ...    0.004 sec

-------------------
DFT GRID GENERATION
-------------------

General Integration Accuracy     IntAcc      ... 4.388
Radial Grid Type                 RadialGrid  ... OptM3 with GC (2021)
Angular Grid (max. ang.)         AngularGrid ... 4 (Lebedev-302)
Angular grid pruning method      GridPruning ... 4 (adaptive)
Weight generation scheme         WeightScheme... mBecke (2022)
Basis function cutoff            BFCut       ... 1.0000e-11
Integration weight cutoff        WCut        ... 1.0000e-14
Partially contracted basis set               ... off
Rotationally invariant grid construction     ... off
Angular grids for H and He will be reduced by one unit

Total number of grid points                  ...    56253
Total number of batches                      ...      890
Average number of points per batch           ...       63
Average number of grid points per atom       ...     4018

--------------------
COSX GRID GENERATION
--------------------

GRIDX 1
-------
General Integration Accuracy     IntAcc      ... 3.816
Radial Grid Type                 RadialGrid  ... OptM3 with GC (2021)
Angular Grid (max. ang.)         AngularGrid ... 1 (Lebedev-50)
Angular grid pruning method      GridPruning ... 4 (adaptive)
Weight generation scheme         WeightScheme... mBecke (2022)
Basis function cutoff            BFCut       ... 1.0000e-11
Integration weight cutoff        WCut        ... 1.0000e-14
Partially contracted basis set               ... on
Rotationally invariant grid construction     ... off
Angular grids for H and He will be reduced by one unit

Total number of grid points                  ...     7263
Total number of batches                      ...       65
Average number of points per batch           ...      111
Average number of grid points per atom       ...      519
UseSFitting                                  ... on

GRIDX 2
-------
General Integration Accuracy     IntAcc      ... 4.020
Radial Grid Type                 RadialGrid  ... OptM3 with GC (2021)
Angular Grid (max. ang.)         AngularGrid ... 2 (Lebedev-110)
Angular grid pruning method      GridPruning ... 4 (adaptive)
Weight generation scheme         WeightScheme... mBecke (2022)
Basis function cutoff            BFCut       ... 1.0000e-11
Integration weight cutoff        WCut        ... 1.0000e-14
Partially contracted basis set               ... on
Rotationally invariant grid construction     ... off
Angular grids for H and He will be reduced by one unit

Total number of grid points                  ...    14883
Total number of batches                      ...      122
Average number of points per batch           ...      121
Average number of grid points per atom       ...     1063
UseSFitting                                  ... on

GRIDX 3
-------
General Integration Accuracy     IntAcc      ... 4.338
Radial Grid Type                 RadialGrid  ... OptM3 with GC (2021)
Angular Grid (max. ang.)         AngularGrid ... 3 (Lebedev-194)
Angular grid pruning method      GridPruning ... 4 (adaptive)
Weight generation scheme         WeightScheme... mBecke (2022)
Basis function cutoff            BFCut       ... 1.0000e-11
Integration weight cutoff        WCut        ... 1.0000e-14
Partially contracted basis set               ... on
Rotationally invariant grid construction     ... off
Angular grids for H and He will be reduced by one unit

Total number of grid points                  ...    32468
Total number of batches                      ...      262
Average number of points per batch           ...      123
Average number of grid points per atom       ...     2319
UseSFitting                                  ... on
Grids setup in   0.7 sec
Initializing property integral containers    ... done (  0.0 sec)

SHARK setup successfully completed in   0.8 seconds

Maximum memory used throughout the entire STARTUP-calculation: 15.7 MB


           ************************************************************
           *        Program running with 6 parallel MPI-processes     *
           *              working on a common directory               *
           ************************************************************
-------------------------------------------------------------------------------
                                 ORCA GUESS
                   Start orbitals & Density for SCF / CASSCF
-------------------------------------------------------------------------------

------------
SCF SETTINGS
------------
Hamiltonian:
 Density Functional     Method          .... DFT(GTOs)
 Exchange Functional    Exchange        .... B88
   X-Alpha parameter    XAlpha          ....  0.666667
   Becke's b parameter  XBeta           ....  0.004200
 Correlation Functional Correlation     .... LYP
 LDA part of GGA corr.  LDAOpt          .... VWN-5
 Gradients option       PostSCFGGA      .... off
 Hybrid DFT is turned on
   Fraction HF Exchange ScalHFX         ....  0.200000
   Scaling of DF-GGA-X  ScalDFX         ....  0.720000
   Scaling of DF-GGA-C  ScalDFC         ....  0.810000
   Scaling of DF-LDA-C  ScalLDAC        ....  1.000000
   Perturbative correction              ....  0.000000
   NL short-range parameter             ....  4.800000
 RI-approximation to the Coulomb term is turned on
   Number of AuxJ basis functions       .... 306
   RIJ-COSX (HFX calculated with COS-X)).... on


General Settings:
 Integral files         IntName         .... orca
 Hartree-Fock type      HFTyp           .... RHF
 Total Charge           Charge          ....    0
 Multiplicity           Mult            ....    1
 Number of Electrons    NEL             ....   34
 Basis Dimension        Dim             ....  106
 Nuclear Repulsion      ENuc            ....    121.1987568366 Eh

Convergence Acceleration:
 AO-DIIS                CNVDIIS         .... on
   Start iteration      DIISMaxIt       ....    12
   Startup error        DIISStart       ....  0.200000
   # of expansion vecs  DIISMaxEq       ....     5
   Bias factor          DIISBfac        ....   1.050
   Max. coefficient     DIISMaxC        ....  10.000
 MO-DIIS                CNVKDIIS        .... off
 Trust-Rad. Augm. Hess. CNVTRAH         .... auto
   Auto Start mean grad. ratio tolernc. ....  1.125000
   Auto Start start iteration           ....    50
   Auto Start num. interpolation iter.  ....    10
   Max. Number of Micro iterations      ....    24
   Max. Number of Macro iterations      .... Maxiter - #DIIS iter
   Number of Davidson start vectors     ....     2
   Converg. threshold    (grad. norm)   ....   1.000e-05
   Grad. Scal. Fac. for Micro threshold ....   0.100
   Minimum threshold for Micro iter.    ....   1.000e-02
   NR start threshold (gradient norm)   ....   1.000e-04
   Initial trust radius                 ....   0.400
   Minimum AH scaling param. (alpha)    ....   1.000
   Maximum AH scaling param. (alpha)    .... 1000.000
   Quad. conv. algorithm                .... NR
   White noise on init. David. guess    .... on
   Maximum white noise                  ....   0.010
   Pseudo random numbers                .... off
   Inactive MOs                         .... canonical
   Orbital update algorithm             .... Taylor
   Preconditioner                       .... Diag
   Full preconditioner red. dimension   ....   250
 SOSCF                 CNVSOSCF           .... on
   Start iteration     SOSCFMaxIt         ....   150
   Startup grad/error  SOSCFStart         ....  0.003300
   Hessian update      SOSCFHessUp        .... L-BFGS
   Autom. constraints  SOSCFAutoConstrain .... off
 Level Shifting         CNVShift        .... on
   Level shift para.    LevelShift      ....    0.2500
   Turn off err/grad.   ShiftErr        ....    0.0010
 Zerner damping         CNVZerner       .... off
 Static damping         CNVDamp         .... on
   Fraction old density DampFac         ....    0.7000
   Max. Damping (<1)    DampMax         ....    0.9800
   Min. Damping (>=0)   DampMin         ....    0.0000
   Turn off err/grad.   DampErr         ....    0.1000

SCF Procedure:
 Maximum # iterations   MaxIter         ....   125
 SCF integral mode      SCFMode         .... Direct
   Integral package                     .... SHARK and LIBINT hybrid scheme
 Reset frequency        DirectResetFreq ....    20
 Integral Threshold     Thresh          ....  2.500e-11 Eh
 Primitive CutOff       TCut            ....  2.500e-12 Eh

Convergence Tolerance:
 Convergence Check Mode ConvCheckMode   .... Total+1el-Energy
 Convergence forced     ConvForced      .... 0
 Energy Change          TolE            ....  1.000e-08 Eh
 1-El. energy change                    ....  1.000e-05 Eh
 Orbital Gradient       TolG            ....  1.000e-05
 Orbital Rotation angle TolX            ....  1.000e-05
 DIIS Error             TolErr          ....  5.000e-07

------------------------------
INITIAL GUESS: MODEL POTENTIAL
------------------------------
Loading Hartree-Fock densities                     ... done
Calculating cut-offs                               ... done
Initializing the effective Hamiltonian             ... done
Setting up the integral package (SHARK)            ... done
Starting the Coulomb interaction                   ... done (   0.0 sec)
Making the grid                                    ... done (   0.1 sec)
Mapping shells                                     ... done
Starting the XC term evaluation                    ... done (   0.0 sec)
  promolecular density results
     # of electrons  =     33.997605906
     EX              =    -23.772890597
     EC              =     -1.053617261
     EX+EC           =    -24.826507858
Transforming the Hamiltonian                       ... done (   0.0 sec)
Diagonalizing the Hamiltonian                      ... done (   0.0 sec)
Back transforming the eigenvectors                 ... done (   0.0 sec)
Now organizing SCF variables                       ... done
                      ------------------
                      INITIAL GUESS DONE (   0.1 sec)
                      ------------------
             **** ENERGY FILE WAS UPDATED (orca.en.tmp) ****
Finished Guess after   0.3 sec
Maximum memory used throughout the entire GUESS-calculation: 7.5 MB


           ************************************************************
           *        Program running with 6 parallel MPI-processes     *
           *              working on a common directory               *
           ************************************************************

-------------------------------------------------------------------------------------------
                                      ORCA LEAN-SCF
                              memory conserving SCF solver
-------------------------------------------------------------------------------------------

----------------------------------------D-I-I-S--------------------------------------------
Iteration    Energy (Eh)           Delta-E    RMSDP     MaxDP     DIISErr   Damp  Time(sec)
-------------------------------------------------------------------------------------------
               ***  Starting incremental Fock matrix formation  ***
    1    -164.6988981542561987     0.00e+00  1.51e-02  1.07e-01  3.17e-01  0.700   0.5
    2    -164.8199606974986295    -1.21e-01  1.10e-02  7.36e-02  1.37e-01  0.700   0.3
                               ***Turning on AO-DIIS***
    3    -164.8665639411505026    -4.66e-02  4.23e-03  2.72e-02  3.36e-02  0.700   0.3
    4    -164.8941836047962965    -2.76e-02  6.56e-03  3.38e-02  1.75e-02  0.000   0.3
    5    -164.9551408695848522    -6.10e-02  1.66e-03  1.55e-02  8.22e-03  0.000   0.3
                              *** Initializing SOSCF ***
---------------------------------------S-O-S-C-F--------------------------------------
Iteration    Energy (Eh)           Delta-E    RMSDP     MaxDP     MaxGrad    Time(sec)
--------------------------------------------------------------------------------------
    6    -164.9556158430065693    -4.75e-04  5.66e-04  5.12e-03  2.45e-03     0.3
               *** Restarting incremental Fock matrix formation ***
    7    -164.9556268883096664    -1.10e-05  3.67e-04  2.39e-03  3.94e-04     0.5
    8    -164.9556296549414469    -2.77e-06  9.65e-05  6.35e-04  3.23e-04     0.5
    9    -164.9556312505790743    -1.60e-06  6.47e-05  4.56e-04  9.44e-05     0.4
   10    -164.9556313363412414    -8.58e-08  2.11e-05  1.67e-04  5.88e-05     0.4
   11    -164.9556314151273568    -7.88e-08  1.03e-05  5.66e-05  1.68e-05     0.4
   12    -164.9556314167214168    -1.59e-09  3.14e-06  1.80e-05  6.48e-06     0.4
                 **** Energy Check signals convergence ****

               *****************************************************
               *                     SUCCESS                       *
               *           SCF CONVERGED AFTER  12 CYCLES          *
               *****************************************************

Recomputing exchange energy using gridx3       ... done (    0.680 sec)
Old exchange energy                            :     -4.894079211 Eh
New exchange energy                            :     -4.894076466 Eh
Exchange energy change after final integration :      0.000002745 Eh
Total energy after final integration           :   -164.955628678 Eh
             **** ENERGY FILE WAS UPDATED (orca.en.tmp) ****

----------------
TOTAL SCF ENERGY
----------------

Total Energy       :       -164.95562867772600 Eh           -4488.67086 eV

Components:
Nuclear Repulsion  :        121.19875683662211 Eh            3297.98584 eV
Electronic Energy  :       -286.15438825898769 Eh           -7786.65677 eV
One Electron Energy:       -460.86967648571743 Eh          -12540.90146 eV
Two Electron Energy:        174.71528822672974 Eh            4754.24469 eV

Virial components:
Potential Energy   :       -327.95857281248777 Eh           -8924.20646 eV
Kinetic Energy     :        163.00294413476175 Eh            4435.53561 eV
Virial Ratio       :          2.01197944339797

DFT components:
N(Alpha)           :       16.999991260108 electrons
N(Beta)            :       16.999991260108 electrons
N(Total)           :       33.999982520217 electrons
E(X)               :      -19.390266866521 Eh       
E(C)               :       -1.259138486022 Eh       
E(XC)              :      -20.649405352543 Eh       

---------------
SCF CONVERGENCE
---------------

  Last Energy change         ...    1.5941e-09  Tolerance :   1.0000e-08
  Last MAX-Density change    ...    1.8032e-05  Tolerance :   1.0000e-07
  Last RMS-Density change    ...    3.1388e-06  Tolerance :   5.0000e-09
  Last DIIS Error            ...    2.4452e-03  Tolerance :   5.0000e-07
  Last Orbital Gradient      ...    6.4824e-06  Tolerance :   1.0000e-05
  Last Orbital Rotation      ...    7.7216e-06  Tolerance :   1.0000e-05


----------------
ORBITAL ENERGIES
----------------

  NO   OCC          E(Eh)            E(eV) 
   0   2.0000     -14.416359      -392.2891 
   1   2.0000     -14.250337      -387.7714 
   2   2.0000      -6.772377      -184.2857 
   3   2.0000      -6.699679      -182.3075 
   4   2.0000      -0.950490       -25.8642 
   5   2.0000      -0.781208       -21.2578 
   6   2.0000      -0.590663       -16.0728 
   7   2.0000      -0.567147       -15.4329 
   8   2.0000      -0.536428       -14.5969 
   9   2.0000      -0.471028       -12.8173 
  10   2.0000      -0.435878       -11.8608 
  11   2.0000      -0.389813       -10.6074 
  12   2.0000      -0.353036        -9.6066 
  13   2.0000      -0.352507        -9.5922 
  14   2.0000      -0.306430        -8.3384 
  15   2.0000      -0.248335        -6.7575 
  16   2.0000      -0.190742        -5.1904 
  17   0.0000       0.009857         0.2682 
  18   0.0000       0.046129         1.2552 
  19   0.0000       0.065582         1.7846 
  20   0.0000       0.088038         2.3956 
  21   0.0000       0.104623         2.8469 
  22   0.0000       0.142183         3.8690 
  23   0.0000       0.145913         3.9705 
  24   0.0000       0.172699         4.6994 
  25   0.0000       0.181310         4.9337 
  26   0.0000       0.220385         5.9970 
  27   0.0000       0.223712         6.0875 
*Only the first 10 virtual orbitals were printed.

                    ********************************
                    * MULLIKEN POPULATION ANALYSIS *
                    ********************************

-----------------------
MULLIKEN ATOMIC CHARGES
-----------------------
   0 N :    0.056331
   1 B :   -0.110748
   2 B :   -0.170664
   3 N :   -0.120157
   4 H :    0.131049
   5 H :    0.157108
   6 H :    0.157054
   7 H :   -0.035852
   8 H :   -0.035641
   9 H :   -0.035656
  10 H :   -0.038972
  11 H :   -0.120681
  12 H :    0.083335
  13 H :    0.083494
Sum of atomic charges:   -0.0000000

--------------------------------
MULLIKEN REDUCED ORBITAL CHARGES
--------------------------------
  0 N s       :     3.287167  s :     3.287167
      pz      :     1.172676  p :     3.642423
      px      :     1.179665
      py      :     1.290082
      dz2     :     0.000637  d :     0.014079
      dxz     :     0.004592
      dyz     :     0.004112
      dx2y2   :     0.003111
      dxy     :     0.001627

  1 B s       :     2.941896  s :     2.941896
      pz      :     0.892557  p :     2.093046
      px      :     0.599770
      py      :     0.600718
      dz2     :     0.018279  d :     0.075807
      dxz     :     0.009609
      dyz     :     0.015206
      dx2y2   :     0.021767
      dxy     :     0.010946

  2 B s       :     2.869174  s :     2.869174
      pz      :     0.755526  p :     2.215367
      px      :     0.671523
      py      :     0.788318
      dz2     :     0.012481  d :     0.086123
      dxz     :     0.013931
      dyz     :     0.011197
      dx2y2   :     0.028866
      dxy     :     0.019648

  3 N s       :     3.325819  s :     3.325819
      pz      :     1.212698  p :     3.781370
      px      :     1.383185
      py      :     1.185486
      dz2     :     0.002173  d :     0.012968
      dxz     :     0.002563
      dyz     :     0.003297
      dx2y2   :     0.003077
      dxy     :     0.001859

  4 H s       :     0.814355  s :     0.814355
      pz      :     0.014213  p :     0.054596
      px      :     0.030275
      py      :     0.010107

  5 H s       :     0.796788  s :     0.796788
      pz      :     0.015697  p :     0.046104
      px      :     0.019944
      py      :     0.010462

  6 H s       :     0.796826  s :     0.796826
      pz      :     0.019300  p :     0.046120
      px      :     0.009659
      py      :     0.017161

  7 H s       :     1.019788  s :     1.019788
      pz      :     0.006026  p :     0.016063
      px      :     0.006642
      py      :     0.003395

  8 H s       :     1.023138  s :     1.023138
      pz      :     0.002879  p :     0.012503
      px      :     0.004918
      py      :     0.004706

  9 H s       :     1.023146  s :     1.023146
      pz      :     0.009745  p :     0.012511
      px      :     0.001887
      py      :     0.000879

 10 H s       :     1.022941  s :     1.022941
      pz      :     0.009121  p :     0.016031
      px      :     0.004281
      py      :     0.002629

 11 H s       :     1.109849  s :     1.109849
      pz      :     0.003852  p :     0.010832
      px      :     0.002208
      py      :     0.004773

 12 H s       :     0.868422  s :     0.868422
      pz      :     0.019327  p :     0.048244
      px      :     0.017008
      py      :     0.011909

 13 H s       :     0.868276  s :     0.868276
      pz      :     0.016537  p :     0.048229
      px      :     0.012719
      py      :     0.018973



                     *******************************
                     * LOEWDIN POPULATION ANALYSIS *
                     *******************************

----------------------
LOEWDIN ATOMIC CHARGES
----------------------
   0 N :    0.233504
   1 B :   -0.136944
   2 B :   -0.371987
   3 N :   -0.087146
   4 H :    0.103015
   5 H :    0.113796
   6 H :    0.114059
   7 H :    0.037920
   8 H :   -0.047584
   9 H :   -0.047301
  10 H :    0.037622
  11 H :   -0.063130
  12 H :    0.057073
  13 H :    0.057103

-------------------------------
LOEWDIN REDUCED ORBITAL CHARGES
-------------------------------
  0 N s       :     3.012775  s :     3.012775
      pz      :     1.211669  p :     3.716119
      px      :     1.197694
      py      :     1.306756
      dz2     :     0.001736  d :     0.037602
      dxz     :     0.012724
      dyz     :     0.010676
      dx2y2   :     0.009541
      dxy     :     0.002925

  1 B s       :     2.727638  s :     2.727638
      pz      :     0.907739  p :     2.224630
      px      :     0.643222
      py      :     0.673670
      dz2     :     0.053834  d :     0.184675
      dxz     :     0.021529
      dyz     :     0.032747
      dx2y2   :     0.046892
      dxy     :     0.029672

  2 B s       :     2.669086  s :     2.669086
      pz      :     0.851328  p :     2.466496
      px      :     0.782602
      py      :     0.832566
      dz2     :     0.035709  d :     0.236405
      dxz     :     0.033478
      dyz     :     0.035303
      dx2y2   :     0.084315
      dxy     :     0.047599

  3 N s       :     3.067992  s :     3.067992
      pz      :     1.281056  p :     3.986431
      px      :     1.421674
      py      :     1.283702
      dz2     :     0.005438  d :     0.032722
      dxz     :     0.006579
      dyz     :     0.008869
      dx2y2   :     0.007340
      dxy     :     0.004496

  4 H s       :     0.757266  s :     0.757266
      pz      :     0.035106  p :     0.139719
      px      :     0.081437
      py      :     0.023177

  5 H s       :     0.773223  s :     0.773223
      pz      :     0.038830  p :     0.112981
      px      :     0.049922
      py      :     0.024229

  6 H s       :     0.772974  s :     0.772974
      pz      :     0.046284  p :     0.112967
      px      :     0.020238
      py      :     0.046444

  7 H s       :     0.917535  s :     0.917535
      pz      :     0.014785  p :     0.044545
      px      :     0.021073
      py      :     0.008687

  8 H s       :     1.014091  s :     1.014091
      pz      :     0.008815  p :     0.033493
      px      :     0.012698
      py      :     0.011981

  9 H s       :     1.013822  s :     1.013822
      pz      :     0.023326  p :     0.033479
      px      :     0.005760
      py      :     0.004393

 10 H s       :     0.917675  s :     0.917675
      pz      :     0.020059  p :     0.044702
      px      :     0.017045
      py      :     0.007598

 11 H s       :     1.032899  s :     1.032899
      pz      :     0.009138  p :     0.030231
      px      :     0.005906
      py      :     0.015187

 12 H s       :     0.820223  s :     0.820223
      pz      :     0.054332  p :     0.122704
      px      :     0.043040
      py      :     0.025332

 13 H s       :     0.820204  s :     0.820204
      pz      :     0.037255  p :     0.122693
      px      :     0.032480
      py      :     0.052958



                      *****************************
                      * MAYER POPULATION ANALYSIS *
                      *****************************

  NA   - Mulliken gross atomic population
  ZA   - Total nuclear charge
  QA   - Mulliken gross atomic charge
  VA   - Mayer's total valence
  BVA  - Mayer's bonded valence
  FA   - Mayer's free valence

  ATOM       NA         ZA         QA         VA         BVA        FA
  0 N      6.9437     7.0000     0.0563     3.6706     3.6706    -0.0000
  1 B      5.1107     5.0000    -0.1107     3.5813     3.5813    -0.0000
  2 B      5.1707     5.0000    -0.1707     3.8464     3.8464    -0.0000
  3 N      7.1202     7.0000    -0.1202     3.3106     3.3106     0.0000
  4 H      0.8690     1.0000     0.1310     1.0588     1.0588    -0.0000
  5 H      0.8429     1.0000     0.1571     0.9835     0.9835    -0.0000
  6 H      0.8429     1.0000     0.1571     0.9833     0.9833    -0.0000
  7 H      1.0359     1.0000    -0.0359     0.9427     0.9427    -0.0000
  8 H      1.0356     1.0000    -0.0356     0.9444     0.9444    -0.0000
  9 H      1.0357     1.0000    -0.0357     0.9457     0.9457    -0.0000
 10 H      1.0390     1.0000    -0.0390     0.9414     0.9414     0.0000
 11 H      1.1207     1.0000    -0.1207     0.9082     0.9082    -0.0000
 12 H      0.9167     1.0000     0.0833     0.9928     0.9928     0.0000
 13 H      0.9165     1.0000     0.0835     0.9927     0.9927     0.0000

  Mayer bond orders larger than 0.100000
B(  0-N ,  1-B ) :   0.9044 B(  0-N ,  4-H ) :   0.8762 B(  0-N ,  5-H ) :   0.9539 
B(  0-N ,  6-H ) :   0.9546 B(  1-B ,  2-B ) :   0.1832 B(  1-B ,  7-H ) :   0.2519 
B(  1-B ,  8-H ) :   0.9656 B(  1-B ,  9-H ) :   0.9673 B(  1-B , 10-H ) :   0.2503 
B(  2-B ,  3-N ) :   1.3454 B(  2-B ,  7-H ) :   0.7295 B(  2-B , 10-H ) :   0.7283 
B(  2-B , 11-H ) :   0.7891 B(  3-N , 12-H ) :   0.9758 B(  3-N , 13-H ) :   0.9758 
B(  4-H , 11-H ) :   0.1207 

-------
TIMINGS
-------

Total SCF time: 0 days 0 hours 0 min 5 sec 

Total time                  ....       5.963 sec
Sum of individual times     ....       5.557 sec  ( 93.2%)

SCF preparation             ....       0.169 sec  (  2.8%)
Fock matrix formation       ....       5.194 sec  ( 87.1%)
  Startup                   ....       0.004 sec  (  0.1% of F)
  Split-RI-J                ....       0.400 sec  (  7.7% of F)
  Chain of spheres X        ....       3.876 sec  ( 74.6% of F)
  XC integration            ....       1.160 sec  ( 22.3% of F)
    Basis function eval.    ....       0.352 sec  ( 30.4% of XC)
    Density eval.           ....       0.183 sec  ( 15.8% of XC)
    XC-Functional eval.     ....       0.076 sec  (  6.6% of XC)
    XC-Potential eval.      ....       0.215 sec  ( 18.6% of XC)
Diagonalization             ....       0.000 sec  (  0.0%)
Density matrix formation    ....       0.025 sec  (  0.4%)
Total Energy calculation    ....       0.015 sec  (  0.2%)
Population analysis         ....       0.012 sec  (  0.2%)
Orbital Transformation      ....       0.013 sec  (  0.2%)
Orbital Orthonormalization  ....       0.000 sec  (  0.0%)
DIIS solution               ....       0.071 sec  (  1.2%)
SOSCF solution              ....       0.058 sec  (  1.0%)
Finished LeanSCF after   6.0 sec

Maximum memory used throughout the entire LEANSCF-calculation: 9.6 MB


-------------------------------------------------------------------------------
                          DFT DISPERSION CORRECTION                            
                                                                               
                              DFTD3 V3.1  Rev 1                                
                          USING Becke-Johnson damping                          
-------------------------------------------------------------------------------
The B3LYP functional is recognized
Active option DFTDOPT                   ...         4   

molecular C6(AA) [au] = 1319.200304 


            DFT-D V3
 parameters
 s6 scaling factor         :     1.0000 
 a1 scaling factor         :     0.3981 
 s8 scaling factor         :     1.9889 
 a2 scaling factor         :     4.4211 
 ad hoc parameters k1-k3   :    16.0000     1.3333    -4.0000 

 Edisp/kcal,au: -9.597599455899  -0.015294746659 
 E6   /kcal   :  -4.777470822 
 E8   /kcal   :  -4.820128634 
 % E8         :  50.222231674 

-------------------------   ----------------
Dispersion correction           -0.015294747
-------------------------   ----------------


-------------------------   --------------------
FINAL SINGLE POINT ENERGY      -164.970923424385
-------------------------   --------------------



           ************************************************************
           *        Program running with 6 parallel MPI-processes     *
           *              working on a common directory               *
           ************************************************************
------------------------------------------------------------------------------
                         ORCA SCF GRADIENT CALCULATION
------------------------------------------------------------------------------

Nuc. rep. gradient        (SHARK) ... done (  0.0 sec)
HCore & Overlap gradient  (SHARK) ... done (  0.0 sec)
Split-RIJ-J gradient      (SHARK) ... done (  0.2 sec)
done (  2.7 sec)
XC gradient                       ... done (  0.6 sec)
Dispersion correction             ... done (  0.0 sec)

-------------------
DISPERSION GRADIENT
-------------------

   1   N   :    0.000236824   -0.000245290   -0.000007687
   2   B   :    0.000291598    0.000024991   -0.000153422
   3   B   :   -0.000236104   -0.000034431    0.000135822
   4   N   :   -0.000405683    0.000230842    0.000093000
   5   H   :    0.000041283   -0.000178176    0.000061352
   6   H   :    0.000215800   -0.000164746    0.000070470
   7   H   :    0.000141947   -0.000230581   -0.000074500
   8   H   :   -0.000040697    0.000057032    0.000054664
   9   H   :    0.000210535    0.000152548   -0.000043269
  10   H   :    0.000123950    0.000073994   -0.000221535
  11   H   :   -0.000077890    0.000019292   -0.000026769
  12   H   :   -0.000156782    0.000020818    0.000069421
  13   H   :   -0.000198742    0.000112472   -0.000032061
  14   H   :   -0.000146040    0.000161235    0.000074514

Difference to translation invariance:
           :    0.0000000000   -0.0000000000    0.0000000000

Difference to rotation invariance:
           :    0.0000000000    0.0000000000    0.0000000000

Norm of the Dispersion gradient    ...    0.0010062208
RMS gradient                       ...    0.0001552632
MAX gradient                       ...    0.0004056828

------------------
CARTESIAN GRADIENT
------------------

   1   N   :   -0.000093294    0.000038789   -0.000069885
   2   B   :    0.000133853   -0.000068670   -0.000102714
   3   B   :   -0.000086915    0.000144832   -0.000094080
   4   N   :   -0.000127335   -0.000134248    0.000134935
   5   H   :   -0.000027923    0.000030009   -0.000011056
   6   H   :    0.000067955    0.000013395    0.000068964
   7   H   :   -0.000066119    0.000006495    0.000024162
   8   H   :    0.000052647   -0.000030387    0.000047761
   9   H   :    0.000005506   -0.000040371   -0.000012226
  10   H   :    0.000017647    0.000060434    0.000010572
  11   H   :    0.000024734   -0.000056018    0.000004667
  12   H   :    0.000005760    0.000003888    0.000071886
  13   H   :    0.000129130    0.000028826   -0.000010580
  14   H   :   -0.000035646    0.000003028   -0.000062408

Difference to translation invariance:
           :   -0.0000000000   -0.0000000000    0.0000000000

Difference to rotation invariance:
           :   -0.0001123352   -0.0000472674   -0.0001793939

Norm of the Cartesian gradient     ...    0.0004450784
RMS gradient                       ...    0.0000686771
MAX gradient                       ...    0.0001448320

-------
TIMINGS
-------

Total SCF gradient time     ....        3.566 sec

Densities                   ....       0.000 sec  (  0.0%)
One electron gradient       ....       0.030 sec  (  0.8%)
RI-J Coulomb gradient       ....       0.188 sec  (  5.3%)
COSX gradient               ....       2.712 sec  ( 76.0%)
XC gradient                 ....       0.587 sec  ( 16.4%)

Maximum memory used throughout the entire SCFGRAD-calculation: 27.4 MB


           ************************************************************
           *        Program running with 6 parallel MPI-processes     *
           *              working on a common directory               *
           ************************************************************

------------------------------------------------------------------------------
                              ORCA PROPERTY CALCULATIONS
------------------------------------------------------------------------------

GBWName                                 ... orca.gbw
Number of atoms                         ...     14
Number of basis functions               ...    106
Max core memory                         ...   4096 MB

Electric properties:
Dipole moment                           ... YES
Quadrupole moment                       ...  NO
Static polarizability (Dipole/Dipole)   ...  NO
Static polarizability (Dipole/Quad.)    ...  NO
Static polarizability (Quad./Quad.)     ...  NO
Static polarizability (Velocity)        ...  NO
Static hyperpolarizability              ...  NO

Atomic electric properties:
Dipole moment                           ...  NO
Quadrupole moment                       ...  NO
Static polarizability                   ...  NO

Choice of electric origin               ... Center of mass
Position of electric origin             ...    -0.279867     0.117929     0.082657

General magnetic properties:
Magnetizability                         ...  NO

EPR properties:
g-Tensor (aka g-matrix)                 ...  NO
Zero-Field splitting spin-orbit         ...  NO
Zero-field splitting spin-spin          ...  NO
Hyperfine couplings                     ...  NO (   0 nuclei)
Quadrupole couplings                    ...  NO (   0 nuclei)
Contact density                         ...  NO (   0 nuclei)

NMR properties:
Chemical shifts                         ...  NO (   0 nuclei)
Spin-rotation constants                 ...  NO (   0 nuclei)
Spin-spin couplings                     ...  NO (   0 nuclei,    0 pairs)

Choice of magnetic origin               ... GIAO
Position of magnetic origin             ...     0.000000     0.000000     0.000000

Properties with geometric perturbations:
SCF Hessian                             ...  NO
IR spectrum                             ...  NO
VCD spectrum                            ...  NO
X-ray spectroscopy properties:
SCF XES/XAS/RIXS spectra                ...  NO

SCF SOC stabilization energy            ...  NO
Diagonal Born-Oppenheimer correction    ...  NO

-------------
DIPOLE MOMENT
-------------

Method             : SCF
Type of density    : Electron Density
Multiplicity       :   1
Irrep              :   0
Energy             :  -164.9556286777259970 Eh
Basis              : AO
                                X                 Y                 Z
Electronic contribution:     -0.299816489      -0.073609864       0.159842360
Nuclear contribution   :      1.670218735      -1.211679970      -0.275004903
                        -----------------------------------------
Total Dipole Moment    :      1.370402245      -1.285289834      -0.115162542
                        -----------------------------------------
Magnitude (a.u.)       :      1.882348183
Magnitude (Debye)      :      4.784548848



--------------------
Rotational spectrum 
--------------------
 
Rotational constants in cm-1:             0.589939             0.095413             0.088046 
Rotational constants in MHz :         17685.926147          2860.409229          2639.541389 

Dipole components along the rotational axes: 
x,y,z [a.u.] :    -1.840215    -0.395634    -0.017825 
x,y,z [Debye]:    -4.677455    -1.005621    -0.045307 

 

Dipole moment calculation done in   0.0 sec 

Maximum memory used throughout the entire PROP-calculation: 5.5 MB

--------------------------------
SUGGESTED CITATIONS FOR THIS RUN
--------------------------------

Below you find a list of papers that are relevant to this ORCA run
We neither can nor want to force you to cite these papers, but we appreciate if you do
You receive ORCA, which is the product of decades of hard work by many enthusiastic individuals, for free
The only thing we kindly ask in return is that you cite our papers,
We deeply appreciate it, if you show your appreciation for ORCA by not just citing the generic ORCA reference.

Please note that relegating all ORCA citations to the supporting information does *not* help us.
SI sections are not indexed - citations you put there will not count into any citation statistics
But we need these citations in order to attract the funding resources that allow us to do what we are doing

Therefore, if you are a happy ORCA user, please consider citing a few of the papers listed below in the main body of your paper

In addition to the list printed below, the program has created the file orca.bibtex that contains the list in bibtex format
You can import this file easily into all common literature databanks and citation aid programs


List of essential papers. We consider these as the minimum necessary citations

  1. Neese, F.
     Software update: the ORCA program system, version 6.0
     WIRES Comput. Molec. Sci. 2025 15(1), e70019
     doi.org/10.1002/wcms.7019

List of papers to cite with high priority. The work reported in these papers was absolutely
necessary for this run to complete.
Our perspective: the developers of density functionals and basis sets usually get cited in chemistry papers
Good! But without the algorithms to do something with them, the functionals or basis sets would not do anything.
Hence, in our opinion, the algorithm design and method developments papers are equally worthy of getting cited

  1. Neese, F.
     An improvement of the resolution of the identity approximation for the formation of the Coulomb matrix
     J. Comp. Chem. 2003 24(14), 1740-1747
     doi.org/10.1002/jcc.10318
  2. Neese, F.; Wennmohs, F.; Hansen, A.; Becker, U.
     Efficient, approximate and parallel Hartree-Fock and hybrid DFT calculations. A 'chain-of-spheres' algorithm for the Hartree-Fock exchange
     Chem. Phys. 2009 356(1-3), 98-109
     doi.org/10.1016/j.chemphys.2008.10.036
  3. Grimme, S.; Antony, J.; Ehrlich, S.; Krieg, H.
     A consistent and accurate ab initio parametrization of density functional dispersion correction (DFT-D) for the 94 elements H-Pu
     J. Chem. Phys. 2010 132 , 154104
     doi.org/10.1063/1.3382344
  4. Grimme, S.; Ehrlich, S.; Goerigk, L.
     Effect of the damping function in dispersion corrected density functional theory
     J. Comput. Chem. 2011 32(7), 1456-1465
     doi.org/10.1002/jcc.21759
  5. Helmich-Paris, B.; de Souza, B.; Neese, F.; Izsák, R.
     An improved chain of spheres for exchange algorithm
     J. Chem. Phys. 2021 155(10), 104109
     doi.org/10.1063/5.0058766
  6. Neese, F.
     The SHARK Integral Generation and Digestion System
     J. Comp. Chem. 2022 44(3), 381
     doi.org/10.1002/jcc.26942

List of suggested additional citations. These are papers that are important in the 'surrounding' of 
of this run, or papers that preceded the highly important papers. If you like your results we are grateful for a citation.

  1. Izsak, R.; Neese, F.
     An overlap fitted chain of spheres exchange method
     J. Chem. Phys. 2011 135 , 144105
     doi.org/10.1063/1.3646921
  2. Izsak, R.; Hansen, A.; Neese, F.
     The resolution of identity and chain of spheres approximations for the LPNO-CCSD singles Fock term
     Molec. Phys. 2012 110 , 2413-2417
     doi.org/10.1080/00268976.2012.687466
  3. Neese, F.
     The ORCA program system
     WIRES Comput. Molec. Sci. 2012 2(1), 73-78
     doi.org/10.1002/wcms.81
  4. Izsak, R.; Neese, F.; Klopper, W.
     Robust fitting techniques in the chain of spheres approximation to the Fock exchange: The role of the complementary space
     J. Chem. Phys. 2013 139 , 
     doi.org/10.1063/1.4819264
  5. Neese, F.
     Software update: the ORCA program system, version 4.0
     WIRES Comput. Molec. Sci. 2018 8(1), 1-6
     doi.org/10.1002/wcms.1327
  6. Neese, F.; Wennmohs, F.; Becker, U.; Riplinger, C.
     The ORCA quantum chemistry program package
     J. Chem. Phys. 2020 152(22), 224108
     doi.org/10.1063/5.0004608
  7. Neese, F.
     Software update: The ORCA program system—Version 5.0
     WIRES Comput. Molec. Sci. 2022 12(1), e1606
     doi.org/10.1002/wcms.1606

List of optional additional citations

  1. Neese, F.
     Approximate second-order SCF convergence for spin unrestricted wavefunctions
     Chem. Phys. Lett. 2000 325(1-3), 93-98
     doi.org/10.1016/s0009-2614(00)00662-x

Timings for individual modules:

Sum of individual times          ...       12.624 sec (=   0.210 min)
Startup calculation              ...        1.181 sec (=   0.020 min)   9.4 %
SCF iterations                   ...        6.944 sec (=   0.116 min)  55.0 %
Property calculations            ...        0.465 sec (=   0.008 min)   3.7 %
SCF Gradient evaluation          ...        4.035 sec (=   0.067 min)  32.0 %
                             ****ORCA TERMINATED NORMALLY****
TOTAL RUN TIME: 0 days 0 hours 0 minutes 13 seconds 216 msec
