
                                 *****************
                                 * O   R   C   A *
                                 *****************

                                            #,                                       
                                            ###                                      
                                            ####                                     
                                            #####                                    
                                            ######                                   
                                           ########,                                 
                                     ,,################,,,,,                         
                               ,,#################################,,                 
                          ,,##########################################,,             
                       ,#########################################, ''#####,          
                    ,#############################################,,   '####,        
                  ,##################################################,,,,####,       
                ,###########''''           ''''###############################       
              ,#####''   ,,,,##########,,,,          '''####'''          '####       
            ,##' ,,,,###########################,,,                        '##       
           ' ,,###''''                  '''############,,,                           
         ,,##''                                '''############,,,,        ,,,,,,###''
      ,#''                                            '''#######################'''  
     '                                                          ''''####''''         
             ,#######,   #######,   ,#######,      ##                                
            ,#'     '#,  ##    ##  ,#'     '#,    #''#        ,####,    ,#,          
            ##       ##  ##   ,#'  ##            #'  '#       #'       ,# #          
            ##       ##  #######   ##           ,######,      #####,      #          
            '#,     ,#'  ##    ##  '#,     ,#' ,#      #,     #,   #      #          
             '#######'   ##     ##  '#######'  #'      '#     '####' #    #          



                #########################################################
                #                        -***-                          #
                #          Department of theory and spectroscopy        #
                #                                                       #
                #                      Frank Neese                      #
                #                                                       #
                #     Directorship, Architecture, Infrastructure        #
                #                    SHARK, DRIVERS                     #
                #        Core code/Algorithms in most modules           #
                #                                                       #
                #        Max Planck Institute fuer Kohlenforschung      #
                #                Kaiser Wilhelm Platz 1                 #
                #                 D-45470 Muelheim/Ruhr                 #
                #                      Germany                          #
                #                                                       #
                #                  All rights reserved                  #
                #                        -***-                          #
                #########################################################


                         Program Version 6.1.0  -  RELEASE   -
                                (GIT: $679e74b$)
                          ($2025-06-10 18:02:51 +0200$)


 With contributions from (in alphabetic order):
[Max-Planck-Institut fuer Kohlenforschung]                               
  Daniel Aravena         : Magnetic Suceptibility                        
  Michael Atanasov       : Ab Initio Ligand Field Theory (pilot matlab implementation)
  Alexander A. Auer      : GIAO ZORA, VPT2 properties, NMR spectrum      
  Ute Becker             : All parallelization in ORCA, NUMFREQ, NUMCALC 
  Giovanni Bistoni       : ED, misc. LED, open-shell LED, HFLD           
  Dmytro Bykov           : pre 5.0 version of the SCF Hessian            
  Marcos Casanova-Páez   : Triplet and SCS-CIS(D). UHF-(DLPNO)-IP/EA/STEOM-CCSD. UHF-CVS-IP/STEOM-CCSD   
  Vijay G. Chilkuri      : MRCI spin determinant printing, contributions to CSF-ICE 
  Pauline Colinet        : FMM embedding                                 
  Dipayan Datta          : RHF DLPNO-CCSD density                        
  Achintya Kumar Dutta   : EOM-CC, STEOM-CC                              
  Nicolas Foglia         : Exact transition moments, OPA infrastructure, MCD improvements    
  Dmitry Ganyushin       : Spin-Orbit,Spin-Spin,Magnetic field MRCI      
  Miquel Garcia-Rates    : C-PCM and meta-GGA Hessian, CCSD/C-PCM, Gaussian charge scheme 
  Tiago L. C. Gouveia    : GS-ROHF, GS-ROCIS                             
  Yang Guo               : DLPNO-NEVPT2, F12-NEVPT2, CIM, IAO-localization        
  Andreas Hansen         : Spin unrestricted coupled pair/coupled cluster methods 
  Ingolf Harden          : AUTO-CI MPn and infrastructure                
  Benjamin Helmich-Paris : MC-RPA, TRAH-(SCF,CASSCF), AVAS, COSX integrals, SCF dyn. polar., MC-PDFT, srDFT 
  Lee Huntington         : MR-EOM, pCC                                   
  Robert Izsak           : Overlap fitted RIJCOSX, COSX-SCS-MP3, EOM     
  Riya Kayal             : Wick's Theorem for AUTO-CI, AUTO-CI UHF-CCSDT 
  Emily Kempfer          : AUTO-CI RHF CISDT and CCSDT, approximate NEVPT4
  Christian Kollmar      : KDIIS, OOCD, Brueckner-CCSD(T), CCSD density, CASPT2, CASPT2-K, improved NEVPT2 
  Axel Koslowski         : Symmetry handling                             
  Simone Kossmann        : meta-GGA functionals, TD-DFT gradient, OOMP2, (MP2 Hessian; deprecated post 5.0) 
  Lucas Lang             : DCDCAS, Hyperfine gauge corrections, ICE-SOC+SSC
  Marvin Lechner         : AUTO-CI (C++ implementation), FIC-MRCC        
  Spencer Leger          : CASSCF response                               
  Dagmar Lenk            : GEPOL surface, SMD, ORCA-2-JSON               
  Dimitrios Liakos       : Extrapolation schemes; Compound Job, Property file
  Dimitrios Manganas     : Further ROCIS development; embedding schemes. LFT, Crystal Embedding 
  Dimitrios Pantazis     : SARC Basis sets                               
  Anastasios Papadopoulos: AUTO-CI, single reference methods and gradients 
  Taras Petrenko         : pre 6.0 DFT Hessian and TD-DFT gradient,  ECA, NRVS 
  Petra Pikulova         : Analytic Raman intensities                    
  Peter Pinski           : DLPNO-MP2, DLPNO-MP2 Gradient                 
  Shashank Vittal Rao    : ES-AILFT, MagRelax                            
  Christoph Reimann      : Effective Core Potentials                     
  Marius Retegan         : Local ZFS, SOC                                
  Christoph Riplinger    : Optimizer, TS searches, QM/MM, DLPNO-CCSD(T), (RO)-DLPNO pert. Triples 
  Michael Roemelt        : Original ROCIS implementation, recursive CI coupling coefficients
  Masaaki Saitow         : Open-shell DLPNO-CCSD energy and density      
  Barbara Sandhoefer     : DKH picture change effects                    
  Yorick L. A. Schmerwitz: GMF and freeze-and-release deltaSCF, NEB S-IDPP initial path                    
  Kantharuban Sivalingam : CASSCF convergence/infrastructure, NEVPT2, NEVPT3, NEVPT4(SD), FIC-MRCI and CEPA variants
  Bernardo de Souza      : ESD, SOC TD-DFT                               
  Georgi L. Stoychev     : AutoAux, RI-MP2 NMR, DLPNO-MP2 response, X2C  
  Van Anh Tran           : RI-MP2 g-tensors                              
  Willem Van den Heuvel  : Paramagnetic NMR                              
  Zikuan Wang            : NOTCH, Electric field optimization            
  Frank Wennmohs         : Technical directorship and infrastructure     
  Hang Xu                : AUTO-CI-Response properties                   
                                                                         
[FACCTs GmbH]                                                            
  Markus Bursch, Nicolas Foglia, Miquel Garcia-Rates, Ingolf Harden, Hagen Neugebauer, Anastasios Papadopoulos, 
  Christoph Riplinger, Bernardo de Souza, Georgi L. Stoychev                                                    
                                                                 
  APM, various basis sets, CI-OPT, improved COSX, DLPNO-Multilevel,           
  DOCKER, DRACO, updates on ESD, Fragmentator, GOAT, IRC, LR-CPCM, L-BFGS, MBIS, meta-GGA TD-DFT gradient, ML-optimized integration grids, 
  MM, NACMEs, nearIR, NEB, NEB-TS, NL-DFT gradient (VV10), 2- and 3-layer-ONIOM, interface openCOSMO-RS, QMMM,   
  Crystal-QMMM, RESP, rigid body optimization, SF, symmetry and pop. for TD-DFT, various functionals, SOLVATOR                                   
                                                                         
[Other institutions]                                                     
  V. Asgeirsson          : NEB                                           
  Christoph Bannwarth    : sTDA-DFT, sTD-DFT, PBEh-3c, B97-3c, D3        
  Giovanni Bistoni       : ETS/NOCV, ADLD/ADEX, COVALED                  
  Martin Brehm           : Molecular dynamics                            
  Ronald Cardenas        : ETS/NOCV                                      
  Martina Colucci        : COVALED                                       
  Sebastian Ehlert       : rSCAN, r2SCAN, r2SCAN-3c, D4, dhf basis sets  
  Marvin Friede          : D4 for Fr, Ra, Ac-Lr                          
  Lars Goerigk           : TD-DFT with DH, B97 family of functionals     
  Stefan Grimme          : VdW corrections, initial TS optimization, DFT functionals, gCP, sTDA/sTD-DF 
  Waldemar Hujo          : DFT-NL                                        
  H. Jonsson             : NEB                                           
  Holger Kruse           : gCP                                           
  Marcel Mueller         : wB97X-3c, vDZP basis set                      
  Hagen Neugebauer       : wr2SCAN, Native XTB                           
  Gianluca Regni         : ADLD/ADEX                                     
  Tobias Risthaus        : pre 6.0 range-separated hybrid DFT and stability analysis
  Lukas Wittmann         : regularized MP2, r2SCAN double-hybrids, wr2SCAN        
                                                                         
We gratefully acknowledge several colleagues who have allowed us to      
interface, adapt or use parts of their codes:                            
  Ed Valeev, F. Pavosevic, A. Kumar             : LibInt (2-el integral package), F12 methods 
  Garnet Chan, S. Sharma, J. Yang, R. Olivares  : DMRG                   
  Ulf Ekstrom                                   : XCFun DFT Library      
  Mihaly Kallay                                 : mrcc  (arbitrary order and MRCC methods)
  Frank Weinhold                                : gennbo (NPA and NBO analysis)           
  Simon Mueller                                 : openCOSMO-RS                            
  Christopher J. Cramer and Donald G. Truhlar   : smd solvation model                     
  S Lehtola, MJT Oliveira, MAL Marques          : LibXC Library                           
  Liviu Ungur et al                             : ANISO software                          


 Your calculation uses the libint2 library for the computation of 2-el integrals
 For citations please refer to: http://libint.valeyev.net

 Your ORCA version has been built with support for libXC version: 7.0.0
 For citations please refer to: https://libxc.gitlab.io

 This ORCA versions uses:
   CBLAS   interface :  Fast vector & matrix operations
   LAPACKE interface :  Fast linear algebra routines
   SCALAPACK package :  Parallel linear algebra routines
   Shared memory     :  Shared parallel matrices
   BLAS/LAPACK       :  OpenBLAS 0.3.29  USE64BITINT DYNAMIC_ARCH NO_AFFINITY Zen SINGLE_THREADED
        Core in use  :  Zen
   Copyright (c) 2011-2014, The OpenBLAS Project


  ***********************************
  * Starting time: Wed Sep 10 13:35:33 2025
  * Host name:     wyk-Server
  * Process ID:    2292005
  * Working dir.:  /home/wyk/Documents/code/openQDC/MGMR/singlepointcalc/56/sp
  ***********************************

Your calculation utilizes the atom-pairwise dispersion correction
with the Becke-Johnson damping scheme (D3BJ)


Warning: RI is on but no J-basis has been assigned. Assigning Def2/J (nothing to worry about!)
================================================================================

----- Orbital basis set information -----
Your calculation utilizes the basis: def2-SVP
   F. Weigend and R. Ahlrichs, Phys. Chem. Chem. Phys. 7, 3297 (2005).

----- AuxJ basis set information -----
Your calculation utilizes the auxiliary basis: def2/J
   H-Rn: F. Weigend, Phys. Chem. Chem. Phys. 8, 1057 (2006).
   Fr-Lr: K. Eichkorn, F. Weigend, O. Treutler, R. Ahlrichs; Theor. Chem. Acc. 97, 119 (1997).

================================================================================
                                        WARNINGS
                       Please study these warnings very carefully!
================================================================================


================================================================================
                                       INPUT FILE
================================================================================
NAME = orca.inp
|  1> ! B3LYP def2-SVP d3 EnGrad 
|  2> %pal nprocs 6 end 
|  3> *xyz 0 1 
|  4> C   1.18125971966678 -0.05709625862181 -0.01097925877305
|  5> O   1.45684999758818 0.06950701596507 1.28215332729545
|  6> C   -0.73635277590673 0.29631778919767 -0.27422299764215
|  7> O   -1.46975022792721 -0.87637911116133 -0.2362693298731
|  8> H   1.59611317178726 0.68844309282303 -0.73158246018238
|  9> H   1.10361967225358 -1.06833198899122 -0.47414227612204
| 10> H   0.24774988339482 0.3279790402555 0.74769762742766
| 11> H   -0.63109206100469 0.64145738754521 -1.31073241506436
| 12> H   -1.58167707088696 -1.15686062201207 0.68279161584915
| 13> H   -1.16672030896503 1.13496365499994 0.32528616708482
| 14> *
| 15> 
| 16>                          ****END OF INPUT****
================================================================================

                     *******************************
                     * Energy+Gradient Calculation *
                     *******************************

---------------------------------
CARTESIAN COORDINATES (ANGSTROEM)
---------------------------------
  C      1.181260   -0.057096   -0.010979
  O      1.456850    0.069507    1.282153
  C     -0.736353    0.296318   -0.274223
  O     -1.469750   -0.876379   -0.236269
  H      1.596113    0.688443   -0.731582
  H      1.103620   -1.068332   -0.474142
  H      0.247750    0.327979    0.747698
  H     -0.631092    0.641457   -1.310732
  H     -1.581677   -1.156861    0.682792
  H     -1.166720    1.134964    0.325286

----------------------------
CARTESIAN COORDINATES (A.U.)
----------------------------
  NO LB      ZA    FRAG     MASS         X           Y           Z
   0 C     6.0000    0    12.011    2.232257   -0.107896   -0.020748
   1 O     8.0000    0    15.999    2.753048    0.131349    2.422919
   2 C     6.0000    0    12.011   -1.391505    0.559959   -0.518206
   3 O     8.0000    0    15.999   -2.777425   -1.656117   -0.446484
   4 H     1.0000    0     1.008    3.016217    1.300969   -1.382490
   5 H     1.0000    0     1.008    2.085539   -2.018855   -0.895999
   6 H     1.0000    0     1.008    0.468179    0.619791    1.412944
   7 H     1.0000    0     1.008   -1.192591    1.212179   -2.476925
   8 H     1.0000    0     1.008   -2.988936   -2.186150    1.290289
   9 H     1.0000    0     1.008   -2.204782    2.144770    0.614702

--------------------------------
INTERNAL COORDINATES (ANGSTROEM)
--------------------------------
 C      0   0   0     0.000000000000     0.00000000     0.00000000
 O      1   0   0     1.328220717943     0.00000000     0.00000000
 C      1   2   0     1.967596614764   108.38204904     0.00000000
 O      3   1   2     1.383665538936   111.14159681   266.74101731
 H      1   2   3     1.116781664055   119.17611117   111.93607515
 H      1   2   3     1.114964420947   120.35330884   255.94861288
 H      1   2   3     1.263057487954    62.58017138     4.35468876
 H      3   1   2     1.097521267609    95.12709524   152.89933927
 H      4   3   1     0.967404009737   109.45762515    77.75190812
 H      3   1   2     1.117118767334   116.00851041    40.09935072

---------------------------
INTERNAL COORDINATES (A.U.)
---------------------------
 C      0   0   0     0.000000000000     0.00000000     0.00000000
 O      1   0   0     2.509973402313     0.00000000     0.00000000
 C      1   2   0     3.718218743934   108.38204904     0.00000000
 O      3   1   2     2.614748929533   111.14159681   266.74101731
 H      1   2   3     2.110411496450   119.17611117   111.93607515
 H      1   2   3     2.106977404656   120.35330884   255.94861288
 H      1   2   3     2.386832743632    62.58017138     4.35468876
 H      3   1   2     2.074014621935    95.12709524   152.89933927
 H      4   3   1     1.828128639261   109.45762515    77.75190812
 H      3   1   2     2.111048529325   116.00851041    40.09935072

---------------------
BASIS SET INFORMATION
---------------------
There are 3 groups of distinct atoms

 Group   1 Type C   : 7s4p1d contracted to 3s2p1d pattern {511/31/1}
 Group   2 Type O   : 7s4p1d contracted to 3s2p1d pattern {511/31/1}
 Group   3 Type H   : 4s1p contracted to 2s1p pattern {31/1}

Atom   0C    basis set group =>   1
Atom   1O    basis set group =>   2
Atom   2C    basis set group =>   1
Atom   3O    basis set group =>   2
Atom   4H    basis set group =>   3
Atom   5H    basis set group =>   3
Atom   6H    basis set group =>   3
Atom   7H    basis set group =>   3
Atom   8H    basis set group =>   3
Atom   9H    basis set group =>   3
---------------------------------
AUXILIARY/J BASIS SET INFORMATION
---------------------------------
There are 3 groups of distinct atoms

 Group   1 Type C   : 12s5p4d2f1g contracted to 6s4p3d1f1g pattern {711111/2111/211/2/1}
 Group   2 Type O   : 12s5p4d2f1g contracted to 6s4p3d1f1g pattern {711111/2111/211/2/1}
 Group   3 Type H   : 5s2p1d contracted to 3s1p1d pattern {311/2/1}

Atom   0C    basis set group =>   1
Atom   1O    basis set group =>   2
Atom   2C    basis set group =>   1
Atom   3O    basis set group =>   2
Atom   4H    basis set group =>   3
Atom   5H    basis set group =>   3
Atom   6H    basis set group =>   3
Atom   7H    basis set group =>   3
Atom   8H    basis set group =>   3
Atom   9H    basis set group =>   3


           ************************************************************
           *        Program running with 6 parallel MPI-processes     *
           *              working on a common directory               *
           ************************************************************
------------------------------------------------------------------------------
                             ORCA STARTUP CALCULATIONS
                           -- RI-GTO INTEGRALS CHOSEN --
------------------------------------------------------------------------------
------------------------------------------------------------------------------
                   ___                                                        
                  /   \      - P O W E R E D   B Y -                         
                 /     \                                                     
                 |  |  |   _    _      __       _____    __    __             
                 |  |  |  | |  | |    /  \     |  _  \  |  |  /  |          
                  \  \/   | |  | |   /    \    | | | |  |  | /  /          
                 / \  \   | |__| |  /  /\  \   | |_| |  |  |/  /          
                |  |  |   |  __  | /  /__\  \  |    /   |      \           
                |  |  |   | |  | | |   __   |  |    \   |  |\   \          
                \     /   | |  | | |  |  |  |  | |\  \  |  | \   \       
                 \___/    |_|  |_| |__|  |__|  |_| \__\ |__|  \__/        
                                                                              
                      - O R C A' S   B I G   F R I E N D -                    
                                      &                                       
                       - I N T E G R A L  F E E D E R -                       
                                                                              
 v1 FN, 2020, v2 2021, v3 2022-2024                                           
------------------------------------------------------------------------------


----------------------
SHARK INTEGRAL PACKAGE
----------------------

Number of atoms                             ...     10
Number of basis functions                   ...     86
Number of shells                            ...     42
Maximum angular momentum                    ...      2
Integral batch strategy                     ... SHARK/LIBINT Hybrid
RI-J (if used) integral strategy            ... SPLIT-RIJ (Revised 2003 algorithm where possible)
Printlevel                                  ...      1
Contraction scheme used                     ... SEGMENTED contraction
Prescreening option                         ... SCHWARTZ
   Thresh                                   ... 2.500e-11
   Tcut                                     ... 2.500e-12
   Tpresel                                  ... 2.500e-12 
Coulomb Range Separation                    ... NOT USED
Exchange Range Separation                   ... NOT USED
Multipole approximations                    ... NOT USED
Finite Nucleus Model                        ... NOT USED
CABS basis                                  ... NOT available
Auxiliary Coulomb fitting basis             ... AVAILABLE
   # of basis functions in Aux-J            ...    262
   # of shells in Aux-J                     ...     90
   Maximum angular momentum in Aux-J        ...      4
Auxiliary J/K fitting basis                 ... NOT available
Auxiliary Correlation fitting basis         ... NOT available
Auxiliary 'external' fitting basis          ... NOT available

Checking pre-screening integrals            ... done (  0.0 sec) Dimension = 42
   => SHARK Basis and OBASIS are compatible. Storing Pre-screening
Shell pair information
Shell pair cut-off parameter TPreSel        ...   2.5e-12
Total number of shell pairs                 ...       903
Shell pairs after pre-screening             ...       891
Total number of primitive shell pairs       ...      3151
Primitive shell pairs kept                  ...      2568
          la=0 lb=0:    295 shell pairs
          la=1 lb=0:    331 shell pairs
          la=1 lb=1:    105 shell pairs
          la=2 lb=0:     94 shell pairs
          la=2 lb=1:     56 shell pairs
          la=2 lb=2:     10 shell pairs

Checking whether 4 symmetric matrices of dimension 86 fit in memory
:Max Core in MB      =   4096.00
 MB in use           =      4.41
 MB left             =   4091.59
 MB needed           =      0.11
 Data fit in memory  = YES
Calculating RI/J V-Matrix + Cholesky decomp.... done (  0.0 sec)
Calculating Nuclear repulsion               ... done (  0.0 sec) ENN=    127.278138756457 Eh

Diagonalization of the overlap matrix:
Smallest eigenvalue                        ... 6.257e-03
Time for diagonalization                   ...    0.001 sec
Threshold for overlap eigenvalues          ... 1.000e-07
Number of eigenvalues below threshold      ... 0
Time for construction of square roots      ...    0.000 sec
Total time needed                          ...    0.003 sec

-------------------
DFT GRID GENERATION
-------------------

General Integration Accuracy     IntAcc      ... 4.388
Radial Grid Type                 RadialGrid  ... OptM3 with GC (2021)
Angular Grid (max. ang.)         AngularGrid ... 4 (Lebedev-302)
Angular grid pruning method      GridPruning ... 4 (adaptive)
Weight generation scheme         WeightScheme... mBecke (2022)
Basis function cutoff            BFCut       ... 1.0000e-11
Integration weight cutoff        WCut        ... 1.0000e-14
Partially contracted basis set               ... off
Rotationally invariant grid construction     ... off
Angular grids for H and He will be reduced by one unit

Total number of grid points                  ...    43775
Total number of batches                      ...      691
Average number of points per batch           ...       63
Average number of grid points per atom       ...     4378

--------------------
COSX GRID GENERATION
--------------------

GRIDX 1
-------
General Integration Accuracy     IntAcc      ... 3.816
Radial Grid Type                 RadialGrid  ... OptM3 with GC (2021)
Angular Grid (max. ang.)         AngularGrid ... 1 (Lebedev-50)
Angular grid pruning method      GridPruning ... 4 (adaptive)
Weight generation scheme         WeightScheme... mBecke (2022)
Basis function cutoff            BFCut       ... 1.0000e-11
Integration weight cutoff        WCut        ... 1.0000e-14
Partially contracted basis set               ... on
Rotationally invariant grid construction     ... off
Angular grids for H and He will be reduced by one unit

Total number of grid points                  ...     5639
Total number of batches                      ...       50
Average number of points per batch           ...      112
Average number of grid points per atom       ...      564
UseSFitting                                  ... on

GRIDX 2
-------
General Integration Accuracy     IntAcc      ... 4.020
Radial Grid Type                 RadialGrid  ... OptM3 with GC (2021)
Angular Grid (max. ang.)         AngularGrid ... 2 (Lebedev-110)
Angular grid pruning method      GridPruning ... 4 (adaptive)
Weight generation scheme         WeightScheme... mBecke (2022)
Basis function cutoff            BFCut       ... 1.0000e-11
Integration weight cutoff        WCut        ... 1.0000e-14
Partially contracted basis set               ... on
Rotationally invariant grid construction     ... off
Angular grids for H and He will be reduced by one unit

Total number of grid points                  ...    12041
Total number of batches                      ...       98
Average number of points per batch           ...      122
Average number of grid points per atom       ...     1204
UseSFitting                                  ... on

GRIDX 3
-------
General Integration Accuracy     IntAcc      ... 4.338
Radial Grid Type                 RadialGrid  ... OptM3 with GC (2021)
Angular Grid (max. ang.)         AngularGrid ... 3 (Lebedev-194)
Angular grid pruning method      GridPruning ... 4 (adaptive)
Weight generation scheme         WeightScheme... mBecke (2022)
Basis function cutoff            BFCut       ... 1.0000e-11
Integration weight cutoff        WCut        ... 1.0000e-14
Partially contracted basis set               ... on
Rotationally invariant grid construction     ... off
Angular grids for H and He will be reduced by one unit

Total number of grid points                  ...    26411
Total number of batches                      ...      210
Average number of points per batch           ...      125
Average number of grid points per atom       ...     2641
UseSFitting                                  ... on
Grids setup in   0.5 sec
Initializing property integral containers    ... done (  0.0 sec)

SHARK setup successfully completed in   0.6 seconds

Maximum memory used throughout the entire STARTUP-calculation: 13.3 MB


           ************************************************************
           *        Program running with 6 parallel MPI-processes     *
           *              working on a common directory               *
           ************************************************************
-------------------------------------------------------------------------------
                                 ORCA GUESS
                   Start orbitals & Density for SCF / CASSCF
-------------------------------------------------------------------------------

------------
SCF SETTINGS
------------
Hamiltonian:
 Density Functional     Method          .... DFT(GTOs)
 Exchange Functional    Exchange        .... B88
   X-Alpha parameter    XAlpha          ....  0.666667
   Becke's b parameter  XBeta           ....  0.004200
 Correlation Functional Correlation     .... LYP
 LDA part of GGA corr.  LDAOpt          .... VWN-5
 Gradients option       PostSCFGGA      .... off
 Hybrid DFT is turned on
   Fraction HF Exchange ScalHFX         ....  0.200000
   Scaling of DF-GGA-X  ScalDFX         ....  0.720000
   Scaling of DF-GGA-C  ScalDFC         ....  0.810000
   Scaling of DF-LDA-C  ScalLDAC        ....  1.000000
   Perturbative correction              ....  0.000000
   NL short-range parameter             ....  4.800000
 RI-approximation to the Coulomb term is turned on
   Number of AuxJ basis functions       .... 262
   RIJ-COSX (HFX calculated with COS-X)).... on


General Settings:
 Integral files         IntName         .... orca
 Hartree-Fock type      HFTyp           .... RHF
 Total Charge           Charge          ....    0
 Multiplicity           Mult            ....    1
 Number of Electrons    NEL             ....   34
 Basis Dimension        Dim             ....   86
 Nuclear Repulsion      ENuc            ....    127.2781387565 Eh

Convergence Acceleration:
 AO-DIIS                CNVDIIS         .... on
   Start iteration      DIISMaxIt       ....    12
   Startup error        DIISStart       ....  0.200000
   # of expansion vecs  DIISMaxEq       ....     5
   Bias factor          DIISBfac        ....   1.050
   Max. coefficient     DIISMaxC        ....  10.000
 MO-DIIS                CNVKDIIS        .... off
 Trust-Rad. Augm. Hess. CNVTRAH         .... auto
   Auto Start mean grad. ratio tolernc. ....  1.125000
   Auto Start start iteration           ....    50
   Auto Start num. interpolation iter.  ....    10
   Max. Number of Micro iterations      ....    24
   Max. Number of Macro iterations      .... Maxiter - #DIIS iter
   Number of Davidson start vectors     ....     2
   Converg. threshold    (grad. norm)   ....   1.000e-05
   Grad. Scal. Fac. for Micro threshold ....   0.100
   Minimum threshold for Micro iter.    ....   1.000e-02
   NR start threshold (gradient norm)   ....   1.000e-04
   Initial trust radius                 ....   0.400
   Minimum AH scaling param. (alpha)    ....   1.000
   Maximum AH scaling param. (alpha)    .... 1000.000
   Quad. conv. algorithm                .... NR
   White noise on init. David. guess    .... on
   Maximum white noise                  ....   0.010
   Pseudo random numbers                .... off
   Inactive MOs                         .... canonical
   Orbital update algorithm             .... Taylor
   Preconditioner                       .... Diag
   Full preconditioner red. dimension   ....   250
 SOSCF                 CNVSOSCF           .... on
   Start iteration     SOSCFMaxIt         ....   150
   Startup grad/error  SOSCFStart         ....  0.003300
   Hessian update      SOSCFHessUp        .... L-BFGS
   Autom. constraints  SOSCFAutoConstrain .... off
 Level Shifting         CNVShift        .... on
   Level shift para.    LevelShift      ....    0.2500
   Turn off err/grad.   ShiftErr        ....    0.0010
 Zerner damping         CNVZerner       .... off
 Static damping         CNVDamp         .... on
   Fraction old density DampFac         ....    0.7000
   Max. Damping (<1)    DampMax         ....    0.9800
   Min. Damping (>=0)   DampMin         ....    0.0000
   Turn off err/grad.   DampErr         ....    0.1000

SCF Procedure:
 Maximum # iterations   MaxIter         ....   125
 SCF integral mode      SCFMode         .... Direct
   Integral package                     .... SHARK and LIBINT hybrid scheme
 Reset frequency        DirectResetFreq ....    20
 Integral Threshold     Thresh          ....  2.500e-11 Eh
 Primitive CutOff       TCut            ....  2.500e-12 Eh

Convergence Tolerance:
 Convergence Check Mode ConvCheckMode   .... Total+1el-Energy
 Convergence forced     ConvForced      .... 0
 Energy Change          TolE            ....  1.000e-08 Eh
 1-El. energy change                    ....  1.000e-05 Eh
 Orbital Gradient       TolG            ....  1.000e-05
 Orbital Rotation angle TolX            ....  1.000e-05
 DIIS Error             TolErr          ....  5.000e-07

------------------------------
INITIAL GUESS: MODEL POTENTIAL
------------------------------
Loading Hartree-Fock densities                     ... done
Calculating cut-offs                               ... done
Initializing the effective Hamiltonian             ... done
Setting up the integral package (SHARK)            ... done
Starting the Coulomb interaction                   ... done (   0.0 sec)
Making the grid                                    ... done (   0.1 sec)
Mapping shells                                     ... done
Starting the XC term evaluation                    ... done (   0.0 sec)
  promolecular density results
     # of electrons  =     33.996908888
     EX              =    -28.428002851
     EC              =     -1.146234801
     EX+EC           =    -29.574237652
Transforming the Hamiltonian                       ... done (   0.0 sec)
Diagonalizing the Hamiltonian                      ... done (   0.0 sec)
Back transforming the eigenvectors                 ... done (   0.0 sec)
Now organizing SCF variables                       ... done
                      ------------------
                      INITIAL GUESS DONE (   0.1 sec)
                      ------------------
             **** ENERGY FILE WAS UPDATED (orca.en.tmp) ****
Finished Guess after   0.2 sec
Maximum memory used throughout the entire GUESS-calculation: 6.7 MB


           ************************************************************
           *        Program running with 6 parallel MPI-processes     *
           *              working on a common directory               *
           ************************************************************

-------------------------------------------------------------------------------------------
                                      ORCA LEAN-SCF
                              memory conserving SCF solver
-------------------------------------------------------------------------------------------

----------------------------------------D-I-I-S--------------------------------------------
Iteration    Energy (Eh)           Delta-E    RMSDP     MaxDP     DIISErr   Damp  Time(sec)
-------------------------------------------------------------------------------------------
               ***  Starting incremental Fock matrix formation  ***
    1    -229.6225023873395230     0.00e+00  1.94e-02  1.15e-01  3.00e-01  0.700   0.4
    2    -229.7123640608163555    -8.99e-02  1.27e-02  8.59e-02  1.04e-01  0.700   0.2
                               ***Turning on AO-DIIS***
    3    -229.7393412033460436    -2.70e-02  4.25e-03  2.94e-02  3.37e-02  0.700   0.2
    4    -229.7583842898352486    -1.90e-02  5.61e-03  3.98e-02  1.79e-02  0.000   0.2
    5    -229.8026901832247972    -4.43e-02  1.86e-03  1.43e-02  6.64e-03  0.000   0.2
                              *** Initializing SOSCF ***
---------------------------------------S-O-S-C-F--------------------------------------
Iteration    Energy (Eh)           Delta-E    RMSDP     MaxDP     MaxGrad    Time(sec)
--------------------------------------------------------------------------------------
    6    -229.8029069607695760    -2.17e-04  5.50e-04  3.05e-03  2.61e-03     0.2
               *** Restarting incremental Fock matrix formation ***
    7    -229.8029185734507678    -1.16e-05  4.93e-04  3.94e-03  3.54e-04     0.3
    8    -229.8029192404433161    -6.67e-07  1.45e-04  9.16e-04  4.66e-04     0.3
    9    -229.8029238003005048    -4.56e-06  5.79e-05  3.63e-04  4.19e-05     0.3
   10    -229.8029238058861097    -5.59e-09  1.94e-05  1.49e-04  4.60e-05     0.2
                 **** Energy Check signals convergence ****

               *****************************************************
               *                     SUCCESS                       *
               *           SCF CONVERGED AFTER  10 CYCLES          *
               *****************************************************

Recomputing exchange energy using gridx3       ... done (    0.320 sec)
Old exchange energy                            :     -5.762111886 Eh
New exchange energy                            :     -5.762056752 Eh
Exchange energy change after final integration :      0.000055134 Eh
Total energy after final integration           :   -229.802868732 Eh
             **** ENERGY FILE WAS UPDATED (orca.en.tmp) ****

----------------
TOTAL SCF ENERGY
----------------

Total Energy       :       -229.80286873224526 Eh           -6253.25397 eV

Components:
Nuclear Repulsion  :        127.27813875645693 Eh            3463.41423 eV
Electronic Energy  :       -357.08106262233218 Eh           -9716.66970 eV
One Electron Energy:       -565.31202660530937 Eh          -15382.92230 eV
Two Electron Energy:        208.23096398297719 Eh            5666.25260 eV

Virial components:
Potential Energy   :       -457.81654890685394 Eh          -12457.82164 eV
Kinetic Energy     :        228.01368017460868 Eh            6204.56767 eV
Virial Ratio       :          2.00784684741839

DFT components:
N(Alpha)           :       16.999991862975 electrons
N(Beta)            :       16.999991862975 electrons
N(Total)           :       33.999983725950 electrons
E(X)               :      -22.948891386575 Eh       
E(C)               :       -1.356678245976 Eh       
E(XC)              :      -24.305569632551 Eh       

---------------
SCF CONVERGENCE
---------------

  Last Energy change         ...    5.5856e-09  Tolerance :   1.0000e-08
  Last MAX-Density change    ...    1.4872e-04  Tolerance :   1.0000e-07
  Last RMS-Density change    ...    1.9358e-05  Tolerance :   5.0000e-09
  Last DIIS Error            ...    2.6114e-03  Tolerance :   5.0000e-07
  Last Orbital Gradient      ...    4.6042e-05  Tolerance :   1.0000e-05
  Last Orbital Rotation      ...    8.9889e-05  Tolerance :   1.0000e-05


----------------
ORBITAL ENERGIES
----------------

  NO   OCC          E(Eh)            E(eV) 
   0   2.0000     -19.163893      -521.4760 
   1   2.0000     -19.076778      -519.1055 
   2   2.0000     -10.285334      -279.8782 
   3   2.0000     -10.264112      -279.3007 
   4   2.0000      -1.046389       -28.4737 
   5   2.0000      -0.991059       -26.9681 
   6   2.0000      -0.717880       -19.5345 
   7   2.0000      -0.620823       -16.8935 
   8   2.0000      -0.562412       -15.3040 
   9   2.0000      -0.498928       -13.5765 
  10   2.0000      -0.462059       -12.5733 
  11   2.0000      -0.455299       -12.3893 
  12   2.0000      -0.404151       -10.9975 
  13   2.0000      -0.373684       -10.1685 
  14   2.0000      -0.332544        -9.0490 
  15   2.0000      -0.232420        -6.3245 
  16   2.0000      -0.224730        -6.1152 
  17   0.0000       0.004107         0.1117 
  18   0.0000       0.034860         0.9486 
  19   0.0000       0.063717         1.7338 
  20   0.0000       0.095120         2.5883 
  21   0.0000       0.109366         2.9760 
  22   0.0000       0.125510         3.4153 
  23   0.0000       0.139645         3.7999 
  24   0.0000       0.189789         5.1644 
  25   0.0000       0.249700         6.7947 
  26   0.0000       0.394976        10.7478 
  27   0.0000       0.448453        12.2030 
*Only the first 10 virtual orbitals were printed.

                    ********************************
                    * MULLIKEN POPULATION ANALYSIS *
                    ********************************

-----------------------
MULLIKEN ATOMIC CHARGES
-----------------------
   0 C :    0.226407
   1 O :   -0.427512
   2 C :    0.012249
   3 O :   -0.272907
   4 H :    0.008578
   5 H :    0.017577
   6 H :    0.177397
   7 H :    0.044511
   8 H :    0.179501
   9 H :    0.034200
Sum of atomic charges:    0.0000000

--------------------------------
MULLIKEN REDUCED ORBITAL CHARGES
--------------------------------
  0 C s       :     3.106928  s :     3.106928
      pz      :     0.862570  p :     2.583290
      px      :     0.701546
      py      :     1.019174
      dz2     :     0.021514  d :     0.083375
      dxz     :     0.020149
      dyz     :     0.029117
      dx2y2   :     0.009923
      dxy     :     0.002672

  1 O s       :     3.851254  s :     3.851254
      pz      :     1.232561  p :     4.561198
      px      :     1.530603
      py      :     1.798034
      dz2     :     0.006528  d :     0.015060
      dxz     :     0.004022
      dyz     :     0.003107
      dx2y2   :     0.000915
      dxy     :     0.000488

  2 C s       :     3.102673  s :     3.102673
      pz      :     1.034119  p :     2.825520
      px      :     0.962266
      py      :     0.829136
      dz2     :     0.008568  d :     0.059558
      dxz     :     0.005608
      dyz     :     0.012164
      dx2y2   :     0.017555
      dxy     :     0.015664

  3 O s       :     3.722099  s :     3.722099
      pz      :     1.378844  p :     4.536903
      px      :     1.711776
      py      :     1.446284
      dz2     :     0.005388  d :     0.013904
      dxz     :     0.001064
      dyz     :     0.001992
      dx2y2   :     0.002247
      dxy     :     0.003213

  4 H s       :     0.971144  s :     0.971144
      pz      :     0.006986  p :     0.020278
      px      :     0.004562
      py      :     0.008731

  5 H s       :     0.962132  s :     0.962132
      pz      :     0.004371  p :     0.020291
      px      :     0.002660
      py      :     0.013260

  6 H s       :     0.740118  s :     0.740118
      pz      :     0.035052  p :     0.082485
      px      :     0.035898
      py      :     0.011535

  7 H s       :     0.933811  s :     0.933811
      pz      :     0.013890  p :     0.021678
      px      :     0.003955
      py      :     0.003833

  8 H s       :     0.752023  s :     0.752023
      pz      :     0.032838  p :     0.068477
      px      :     0.017789
      py      :     0.017850

  9 H s       :     0.942077  s :     0.942077
      pz      :     0.007328  p :     0.023723
      px      :     0.006765
      py      :     0.009630



                     *******************************
                     * LOEWDIN POPULATION ANALYSIS *
                     *******************************

----------------------
LOEWDIN ATOMIC CHARGES
----------------------
   0 C :    0.171130
   1 O :   -0.359677
   2 C :    0.039588
   3 O :   -0.110703
   4 H :   -0.001296
   5 H :    0.001878
   6 H :    0.109627
   7 H :    0.032889
   8 H :    0.090727
   9 H :    0.025836

-------------------------------
LOEWDIN REDUCED ORBITAL CHARGES
-------------------------------
  0 C s       :     2.882879  s :     2.882879
      pz      :     0.951245  p :     2.763714
      px      :     0.754931
      py      :     1.057537
      dz2     :     0.045416  d :     0.182277
      dxz     :     0.042763
      dyz     :     0.066832
      dx2y2   :     0.021539
      dxy     :     0.005727

  1 O s       :     3.602581  s :     3.602581
      pz      :     1.379632  p :     4.730526
      px      :     1.543918
      py      :     1.806976
      dz2     :     0.013328  d :     0.026569
      dxz     :     0.006644
      dyz     :     0.004356
      dx2y2   :     0.001662
      dxy     :     0.000579

  2 C s       :     2.901398  s :     2.901398
      pz      :     1.069684  p :     2.932847
      px      :     0.963472
      py      :     0.899691
      dz2     :     0.020535  d :     0.126167
      dxz     :     0.010797
      dyz     :     0.026275
      dx2y2   :     0.036497
      dxy     :     0.032063

  3 O s       :     3.439549  s :     3.439549
      pz      :     1.461309  p :     4.644650
      px      :     1.699649
      py      :     1.483692
      dz2     :     0.011209  d :     0.026503
      dxz     :     0.001167
      dyz     :     0.003798
      dx2y2   :     0.003925
      dxy     :     0.006404

  4 H s       :     0.936162  s :     0.936162
      pz      :     0.025766  p :     0.065134
      px      :     0.013255
      py      :     0.026112

  5 H s       :     0.931568  s :     0.931568
      pz      :     0.016392  p :     0.066555
      px      :     0.007658
      py      :     0.042505

  6 H s       :     0.660438  s :     0.660438
      pz      :     0.101848  p :     0.229935
      px      :     0.105001
      py      :     0.023086

  7 H s       :     0.897818  s :     0.897818
      pz      :     0.042952  p :     0.069293
      px      :     0.014322
      py      :     0.012020

  8 H s       :     0.732482  s :     0.732482
      pz      :     0.089921  p :     0.176791
      px      :     0.045809
      py      :     0.041061

  9 H s       :     0.904119  s :     0.904119
      pz      :     0.019898  p :     0.070045
      px      :     0.019939
      py      :     0.030209



                      *****************************
                      * MAYER POPULATION ANALYSIS *
                      *****************************

  NA   - Mulliken gross atomic population
  ZA   - Total nuclear charge
  QA   - Mulliken gross atomic charge
  VA   - Mayer's total valence
  BVA  - Mayer's bonded valence
  FA   - Mayer's free valence

  ATOM       NA         ZA         QA         VA         BVA        FA
  0 C      5.7736     6.0000     0.2264     3.9089     3.9089     0.0000
  1 O      8.4275     8.0000    -0.4275     1.9488     1.9488     0.0000
  2 C      5.9878     6.0000     0.0122     3.8425     3.8425     0.0000
  3 O      8.2729     8.0000    -0.2729     2.1471     2.1471     0.0000
  4 H      0.9914     1.0000     0.0086     0.9546     0.9546     0.0000
  5 H      0.9824     1.0000     0.0176     0.9682     0.9682     0.0000
  6 H      0.8226     1.0000     0.1774     1.1429     1.1429     0.0000
  7 H      0.9555     1.0000     0.0445     0.9803     0.9803    -0.0000
  8 H      0.8205     1.0000     0.1795     1.0038     1.0038     0.0000
  9 H      0.9658     1.0000     0.0342     0.9862     0.9862    -0.0000

  Mayer bond orders larger than 0.100000
B(  0-C ,  1-O ) :   1.1952 B(  0-C ,  2-C ) :   0.4951 B(  0-C ,  4-H ) :   0.8995 
B(  0-C ,  5-H ) :   0.8913 B(  0-C ,  6-H ) :   0.3700 B(  1-O ,  2-C ) :   0.1717 
B(  1-O ,  6-H ) :   0.4492 B(  2-C ,  3-O ) :   1.0764 B(  2-C ,  6-H ) :   0.2567 
B(  2-C ,  7-H ) :   0.9320 B(  2-C ,  9-H ) :   0.8940 B(  3-O ,  8-H ) :   0.9724 


-------
TIMINGS
-------

Total SCF time: 0 days 0 hours 0 min 3 sec 

Total time                  ....       3.308 sec
Sum of individual times     ....       3.017 sec  ( 91.2%)

SCF preparation             ....       0.166 sec  (  5.0%)
Fock matrix formation       ....       2.724 sec  ( 82.3%)
  Startup                   ....       0.004 sec  (  0.1% of F)
  Split-RI-J                ....       0.202 sec  (  7.4% of F)
  Chain of spheres X        ....       1.985 sec  ( 72.9% of F)
  XC integration            ....       0.695 sec  ( 25.5% of F)
    XC Preparation          ....       0.000 sec  (  0.0% of XC)
    Basis function eval.    ....       0.168 sec  ( 24.2% of XC)
    Density eval.           ....       0.080 sec  ( 11.5% of XC)
    XC-Functional eval.     ....       0.043 sec  (  6.1% of XC)
    XC-Potential eval.      ....       0.099 sec  ( 14.2% of XC)
Diagonalization             ....       0.000 sec  (  0.0%)
Density matrix formation    ....       0.017 sec  (  0.5%)
Total Energy calculation    ....       0.011 sec  (  0.3%)
Population analysis         ....       0.010 sec  (  0.3%)
Orbital Transformation      ....       0.009 sec  (  0.3%)
Orbital Orthonormalization  ....       0.000 sec  (  0.0%)
DIIS solution               ....       0.050 sec  (  1.5%)
SOSCF solution              ....       0.029 sec  (  0.9%)
Finished LeanSCF after   3.3 sec

Maximum memory used throughout the entire LEANSCF-calculation: 7.8 MB


-------------------------------------------------------------------------------
                          DFT DISPERSION CORRECTION                            
                                                                               
                              DFTD3 V3.1  Rev 1                                
                          USING Becke-Johnson damping                          
-------------------------------------------------------------------------------
The B3LYP functional is recognized
Active option DFTDOPT                   ...         4   

molecular C6(AA) [au] = 658.979269 


            DFT-D V3
 parameters
 s6 scaling factor         :     1.0000 
 a1 scaling factor         :     0.3981 
 s8 scaling factor         :     1.9889 
 a2 scaling factor         :     4.4211 
 ad hoc parameters k1-k3   :    16.0000     1.3333    -4.0000 

 Edisp/kcal,au: -5.700576251528  -0.009084445541 
 E6   /kcal   :  -2.878863017 
 E8   /kcal   :  -2.821713235 
 % E8         :  49.498736803 

-------------------------   ----------------
Dispersion correction           -0.009084446
-------------------------   ----------------


-------------------------   --------------------
FINAL SINGLE POINT ENERGY      -229.811953177786
-------------------------   --------------------



           ************************************************************
           *        Program running with 6 parallel MPI-processes     *
           *              working on a common directory               *
           ************************************************************
------------------------------------------------------------------------------
                         ORCA SCF GRADIENT CALCULATION
------------------------------------------------------------------------------

Nuc. rep. gradient        (SHARK) ... done (  0.0 sec)
HCore & Overlap gradient  (SHARK) ... done (  0.0 sec)
Split-RIJ-J gradient      (SHARK) ... done (  0.1 sec)
done (  1.8 sec)
XC gradient                       ... done (  0.3 sec)
Dispersion correction             ... done (  0.1 sec)

-------------------
DISPERSION GRADIENT
-------------------

   1   C   :    0.000218178    0.000021431   -0.000010398
   2   O   :    0.000052304    0.000073241    0.000095936
   3   C   :   -0.000073663    0.000037461   -0.000002725
   4   O   :   -0.000307525   -0.000126051   -0.000044539
   5   H   :    0.000166641    0.000040858   -0.000053546
   6   H   :    0.000160730   -0.000086960   -0.000041641
   7   H   :    0.000273957   -0.000026552    0.000130347
   8   H   :   -0.000097567    0.000078663   -0.000136522
   9   H   :   -0.000221700   -0.000130865    0.000056307
  10   H   :   -0.000171356    0.000118772    0.000006779

Difference to translation invariance:
           :   -0.0000000000    0.0000000000    0.0000000000

Difference to rotation invariance:
           :   -0.0000000000   -0.0000000000    0.0000000000

Norm of the Dispersion gradient    ...    0.0007016026
RMS gradient                       ...    0.0001280945
MAX gradient                       ...    0.0003075247

------------------
CARTESIAN GRADIENT
------------------

   1   C   :    0.000036638    0.000102110   -0.000092952
   2   O   :    0.000191277   -0.000068864    0.000021559
   3   C   :   -0.000087481    0.000058116   -0.000094252
   4   O   :    0.000016527   -0.000012896   -0.000000074
   5   H   :   -0.000052472   -0.000059267    0.000051234
   6   H   :    0.000042568    0.000004441    0.000059509
   7   H   :    0.000012869   -0.000014330    0.000078150
   8   H   :   -0.000038909   -0.000029039   -0.000014879
   9   H   :   -0.000078999    0.000002293   -0.000017879
  10   H   :   -0.000042019    0.000017436    0.000009585

Difference to translation invariance:
           :    0.0000000000   -0.0000000000    0.0000000000

Difference to rotation invariance:
           :    0.0000467787    0.0001733489   -0.0000275803

Norm of the Cartesian gradient     ...    0.0003385326
RMS gradient                       ...    0.0000618073
MAX gradient                       ...    0.0001912774

-------
TIMINGS
-------

Total SCF gradient time     ....        2.352 sec

Densities                   ....       0.000 sec  (  0.0%)
One electron gradient       ....       0.017 sec  (  0.7%)
RI-J Coulomb gradient       ....       0.140 sec  (  5.9%)
COSX gradient               ....       1.805 sec  ( 76.7%)
XC gradient                 ....       0.337 sec  ( 14.3%)

Maximum memory used throughout the entire SCFGRAD-calculation: 26.6 MB


           ************************************************************
           *        Program running with 6 parallel MPI-processes     *
           *              working on a common directory               *
           ************************************************************

------------------------------------------------------------------------------
                              ORCA PROPERTY CALCULATIONS
------------------------------------------------------------------------------

GBWName                                 ... orca.gbw
Number of atoms                         ...     10
Number of basis functions               ...     86
Max core memory                         ...   4096 MB

Electric properties:
Dipole moment                           ... YES
Quadrupole moment                       ...  NO
Static polarizability (Dipole/Dipole)   ...  NO
Static polarizability (Dipole/Quad.)    ...  NO
Static polarizability (Quad./Quad.)     ...  NO
Static polarizability (Velocity)        ...  NO
Static hyperpolarizability              ...  NO

Atomic electric properties:
Dipole moment                           ...  NO
Quadrupole moment                       ...  NO
Static polarizability                   ...  NO

Choice of electric origin               ... Center of mass
Position of electric origin             ...     0.143155    -0.288131     0.381817

General magnetic properties:
Magnetizability                         ...  NO

EPR properties:
g-Tensor (aka g-matrix)                 ...  NO
Zero-Field splitting spin-orbit         ...  NO
Zero-field splitting spin-spin          ...  NO
Hyperfine couplings                     ...  NO (   0 nuclei)
Quadrupole couplings                    ...  NO (   0 nuclei)
Contact density                         ...  NO (   0 nuclei)

NMR properties:
Chemical shifts                         ...  NO (   0 nuclei)
Spin-rotation constants                 ...  NO (   0 nuclei)
Spin-spin couplings                     ...  NO (   0 nuclei,    0 pairs)

Choice of magnetic origin               ... GIAO
Position of magnetic origin             ...     0.000000     0.000000     0.000000

Properties with geometric perturbations:
SCF Hessian                             ...  NO
IR spectrum                             ...  NO
VCD spectrum                            ...  NO
X-ray spectroscopy properties:
SCF XES/XAS/RIXS spectra                ...  NO

SCF SOC stabilization energy            ...  NO
Diagonal Born-Oppenheimer correction    ...  NO

-------------
DIPOLE MOMENT
-------------

Method             : SCF
Type of density    : Electron Density
Multiplicity       :   1
Irrep              :   0
Energy             :  -229.8028687322452583 Eh
Basis              : AO
                                X                 Y                 Z
Electronic contribution:      0.046300908      -1.168400012       1.298656661
Nuclear contribution   :     -0.834155922       1.383410023      -1.841506766
                        -----------------------------------------
Total Dipole Moment    :     -0.787855014       0.215010011      -0.542850105
                        -----------------------------------------
Magnitude (a.u.)       :      0.980627893
Magnitude (Debye)      :      2.492558016



--------------------
Rotational spectrum 
--------------------
 
Rotational constants in cm-1:             0.603856             0.131287             0.124975 
Rotational constants in MHz :         18103.143421          3935.876089          3746.661745 

Dipole components along the rotational axes: 
x,y,z [a.u.] :     0.874121    -0.397281    -0.199274 
x,y,z [Debye]:     2.221840    -1.009809    -0.506515 

 

Dipole moment calculation done in   0.0 sec 

Maximum memory used throughout the entire PROP-calculation: 4.7 MB

--------------------------------
SUGGESTED CITATIONS FOR THIS RUN
--------------------------------

Below you find a list of papers that are relevant to this ORCA run
We neither can nor want to force you to cite these papers, but we appreciate if you do
You receive ORCA, which is the product of decades of hard work by many enthusiastic individuals, for free
The only thing we kindly ask in return is that you cite our papers,
We deeply appreciate it, if you show your appreciation for ORCA by not just citing the generic ORCA reference.

Please note that relegating all ORCA citations to the supporting information does *not* help us.
SI sections are not indexed - citations you put there will not count into any citation statistics
But we need these citations in order to attract the funding resources that allow us to do what we are doing

Therefore, if you are a happy ORCA user, please consider citing a few of the papers listed below in the main body of your paper

In addition to the list printed below, the program has created the file orca.bibtex that contains the list in bibtex format
You can import this file easily into all common literature databanks and citation aid programs


List of essential papers. We consider these as the minimum necessary citations

  1. Neese, F.
     Software update: the ORCA program system, version 6.0
     WIRES Comput. Molec. Sci. 2025 15(1), e70019
     doi.org/10.1002/wcms.7019

List of papers to cite with high priority. The work reported in these papers was absolutely
necessary for this run to complete.
Our perspective: the developers of density functionals and basis sets usually get cited in chemistry papers
Good! But without the algorithms to do something with them, the functionals or basis sets would not do anything.
Hence, in our opinion, the algorithm design and method developments papers are equally worthy of getting cited

  1. Neese, F.
     An improvement of the resolution of the identity approximation for the formation of the Coulomb matrix
     J. Comp. Chem. 2003 24(14), 1740-1747
     doi.org/10.1002/jcc.10318
  2. Neese, F.; Wennmohs, F.; Hansen, A.; Becker, U.
     Efficient, approximate and parallel Hartree-Fock and hybrid DFT calculations. A 'chain-of-spheres' algorithm for the Hartree-Fock exchange
     Chem. Phys. 2009 356(1-3), 98-109
     doi.org/10.1016/j.chemphys.2008.10.036
  3. Grimme, S.; Antony, J.; Ehrlich, S.; Krieg, H.
     A consistent and accurate ab initio parametrization of density functional dispersion correction (DFT-D) for the 94 elements H-Pu
     J. Chem. Phys. 2010 132 , 154104
     doi.org/10.1063/1.3382344
  4. Grimme, S.; Ehrlich, S.; Goerigk, L.
     Effect of the damping function in dispersion corrected density functional theory
     J. Comput. Chem. 2011 32(7), 1456-1465
     doi.org/10.1002/jcc.21759
  5. Helmich-Paris, B.; de Souza, B.; Neese, F.; Izsák, R.
     An improved chain of spheres for exchange algorithm
     J. Chem. Phys. 2021 155(10), 104109
     doi.org/10.1063/5.0058766
  6. Neese, F.
     The SHARK Integral Generation and Digestion System
     J. Comp. Chem. 2022 44(3), 381
     doi.org/10.1002/jcc.26942

List of suggested additional citations. These are papers that are important in the 'surrounding' of 
of this run, or papers that preceded the highly important papers. If you like your results we are grateful for a citation.

  1. Izsak, R.; Neese, F.
     An overlap fitted chain of spheres exchange method
     J. Chem. Phys. 2011 135 , 144105
     doi.org/10.1063/1.3646921
  2. Izsak, R.; Hansen, A.; Neese, F.
     The resolution of identity and chain of spheres approximations for the LPNO-CCSD singles Fock term
     Molec. Phys. 2012 110 , 2413-2417
     doi.org/10.1080/00268976.2012.687466
  3. Neese, F.
     The ORCA program system
     WIRES Comput. Molec. Sci. 2012 2(1), 73-78
     doi.org/10.1002/wcms.81
  4. Izsak, R.; Neese, F.; Klopper, W.
     Robust fitting techniques in the chain of spheres approximation to the Fock exchange: The role of the complementary space
     J. Chem. Phys. 2013 139 , 
     doi.org/10.1063/1.4819264
  5. Neese, F.
     Software update: the ORCA program system, version 4.0
     WIRES Comput. Molec. Sci. 2018 8(1), 1-6
     doi.org/10.1002/wcms.1327
  6. Neese, F.; Wennmohs, F.; Becker, U.; Riplinger, C.
     The ORCA quantum chemistry program package
     J. Chem. Phys. 2020 152(22), 224108
     doi.org/10.1063/5.0004608
  7. Neese, F.
     Software update: The ORCA program system—Version 5.0
     WIRES Comput. Molec. Sci. 2022 12(1), e1606
     doi.org/10.1002/wcms.1606

List of optional additional citations

  1. Neese, F.
     Approximate second-order SCF convergence for spin unrestricted wavefunctions
     Chem. Phys. Lett. 2000 325(1-3), 93-98
     doi.org/10.1016/s0009-2614(00)00662-x

Timings for individual modules:

Sum of individual times          ...        8.492 sec (=   0.142 min)
Startup calculation              ...        0.970 sec (=   0.016 min)  11.4 %
SCF iterations                   ...        4.198 sec (=   0.070 min)  49.4 %
Property calculations            ...        0.472 sec (=   0.008 min)   5.6 %
SCF Gradient evaluation          ...        2.852 sec (=   0.048 min)  33.6 %
                             ****ORCA TERMINATED NORMALLY****
TOTAL RUN TIME: 0 days 0 hours 0 minutes 9 seconds 42 msec
