
                                 *****************
                                 * O   R   C   A *
                                 *****************

                                            #,                                       
                                            ###                                      
                                            ####                                     
                                            #####                                    
                                            ######                                   
                                           ########,                                 
                                     ,,################,,,,,                         
                               ,,#################################,,                 
                          ,,##########################################,,             
                       ,#########################################, ''#####,          
                    ,#############################################,,   '####,        
                  ,##################################################,,,,####,       
                ,###########''''           ''''###############################       
              ,#####''   ,,,,##########,,,,          '''####'''          '####       
            ,##' ,,,,###########################,,,                        '##       
           ' ,,###''''                  '''############,,,                           
         ,,##''                                '''############,,,,        ,,,,,,###''
      ,#''                                            '''#######################'''  
     '                                                          ''''####''''         
             ,#######,   #######,   ,#######,      ##                                
            ,#'     '#,  ##    ##  ,#'     '#,    #''#        ,####,    ,#,          
            ##       ##  ##   ,#'  ##            #'  '#       #'       ,# #          
            ##       ##  #######   ##           ,######,      #####,      #          
            '#,     ,#'  ##    ##  '#,     ,#' ,#      #,     #,   #      #          
             '#######'   ##     ##  '#######'  #'      '#     '####' #    #          



                #########################################################
                #                        -***-                          #
                #          Department of theory and spectroscopy        #
                #                                                       #
                #                      Frank Neese                      #
                #                                                       #
                #     Directorship, Architecture, Infrastructure        #
                #                    SHARK, DRIVERS                     #
                #        Core code/Algorithms in most modules           #
                #                                                       #
                #        Max Planck Institute fuer Kohlenforschung      #
                #                Kaiser Wilhelm Platz 1                 #
                #                 D-45470 Muelheim/Ruhr                 #
                #                      Germany                          #
                #                                                       #
                #                  All rights reserved                  #
                #                        -***-                          #
                #########################################################


                         Program Version 6.1.0  -  RELEASE   -
                                (GIT: $679e74b$)
                          ($2025-06-10 18:02:51 +0200$)


 With contributions from (in alphabetic order):
[Max-Planck-Institut fuer Kohlenforschung]                               
  Daniel Aravena         : Magnetic Suceptibility                        
  Michael Atanasov       : Ab Initio Ligand Field Theory (pilot matlab implementation)
  Alexander A. Auer      : GIAO ZORA, VPT2 properties, NMR spectrum      
  Ute Becker             : All parallelization in ORCA, NUMFREQ, NUMCALC 
  Giovanni Bistoni       : ED, misc. LED, open-shell LED, HFLD           
  Dmytro Bykov           : pre 5.0 version of the SCF Hessian            
  Marcos Casanova-Páez   : Triplet and SCS-CIS(D). UHF-(DLPNO)-IP/EA/STEOM-CCSD. UHF-CVS-IP/STEOM-CCSD   
  Vijay G. Chilkuri      : MRCI spin determinant printing, contributions to CSF-ICE 
  Pauline Colinet        : FMM embedding                                 
  Dipayan Datta          : RHF DLPNO-CCSD density                        
  Achintya Kumar Dutta   : EOM-CC, STEOM-CC                              
  Nicolas Foglia         : Exact transition moments, OPA infrastructure, MCD improvements    
  Dmitry Ganyushin       : Spin-Orbit,Spin-Spin,Magnetic field MRCI      
  Miquel Garcia-Rates    : C-PCM and meta-GGA Hessian, CCSD/C-PCM, Gaussian charge scheme 
  Tiago L. C. Gouveia    : GS-ROHF, GS-ROCIS                             
  Yang Guo               : DLPNO-NEVPT2, F12-NEVPT2, CIM, IAO-localization        
  Andreas Hansen         : Spin unrestricted coupled pair/coupled cluster methods 
  Ingolf Harden          : AUTO-CI MPn and infrastructure                
  Benjamin Helmich-Paris : MC-RPA, TRAH-(SCF,CASSCF), AVAS, COSX integrals, SCF dyn. polar., MC-PDFT, srDFT 
  Lee Huntington         : MR-EOM, pCC                                   
  Robert Izsak           : Overlap fitted RIJCOSX, COSX-SCS-MP3, EOM     
  Riya Kayal             : Wick's Theorem for AUTO-CI, AUTO-CI UHF-CCSDT 
  Emily Kempfer          : AUTO-CI RHF CISDT and CCSDT, approximate NEVPT4
  Christian Kollmar      : KDIIS, OOCD, Brueckner-CCSD(T), CCSD density, CASPT2, CASPT2-K, improved NEVPT2 
  Axel Koslowski         : Symmetry handling                             
  Simone Kossmann        : meta-GGA functionals, TD-DFT gradient, OOMP2, (MP2 Hessian; deprecated post 5.0) 
  Lucas Lang             : DCDCAS, Hyperfine gauge corrections, ICE-SOC+SSC
  Marvin Lechner         : AUTO-CI (C++ implementation), FIC-MRCC        
  Spencer Leger          : CASSCF response                               
  Dagmar Lenk            : GEPOL surface, SMD, ORCA-2-JSON               
  Dimitrios Liakos       : Extrapolation schemes; Compound Job, Property file
  Dimitrios Manganas     : Further ROCIS development; embedding schemes. LFT, Crystal Embedding 
  Dimitrios Pantazis     : SARC Basis sets                               
  Anastasios Papadopoulos: AUTO-CI, single reference methods and gradients 
  Taras Petrenko         : pre 6.0 DFT Hessian and TD-DFT gradient,  ECA, NRVS 
  Petra Pikulova         : Analytic Raman intensities                    
  Peter Pinski           : DLPNO-MP2, DLPNO-MP2 Gradient                 
  Shashank Vittal Rao    : ES-AILFT, MagRelax                            
  Christoph Reimann      : Effective Core Potentials                     
  Marius Retegan         : Local ZFS, SOC                                
  Christoph Riplinger    : Optimizer, TS searches, QM/MM, DLPNO-CCSD(T), (RO)-DLPNO pert. Triples 
  Michael Roemelt        : Original ROCIS implementation, recursive CI coupling coefficients
  Masaaki Saitow         : Open-shell DLPNO-CCSD energy and density      
  Barbara Sandhoefer     : DKH picture change effects                    
  Yorick L. A. Schmerwitz: GMF and freeze-and-release deltaSCF, NEB S-IDPP initial path                    
  Kantharuban Sivalingam : CASSCF convergence/infrastructure, NEVPT2, NEVPT3, NEVPT4(SD), FIC-MRCI and CEPA variants
  Bernardo de Souza      : ESD, SOC TD-DFT                               
  Georgi L. Stoychev     : AutoAux, RI-MP2 NMR, DLPNO-MP2 response, X2C  
  Van Anh Tran           : RI-MP2 g-tensors                              
  Willem Van den Heuvel  : Paramagnetic NMR                              
  Zikuan Wang            : NOTCH, Electric field optimization            
  Frank Wennmohs         : Technical directorship and infrastructure     
  Hang Xu                : AUTO-CI-Response properties                   
                                                                         
[FACCTs GmbH]                                                            
  Markus Bursch, Nicolas Foglia, Miquel Garcia-Rates, Ingolf Harden, Hagen Neugebauer, Anastasios Papadopoulos, 
  Christoph Riplinger, Bernardo de Souza, Georgi L. Stoychev                                                    
                                                                 
  APM, various basis sets, CI-OPT, improved COSX, DLPNO-Multilevel,           
  DOCKER, DRACO, updates on ESD, Fragmentator, GOAT, IRC, LR-CPCM, L-BFGS, MBIS, meta-GGA TD-DFT gradient, ML-optimized integration grids, 
  MM, NACMEs, nearIR, NEB, NEB-TS, NL-DFT gradient (VV10), 2- and 3-layer-ONIOM, interface openCOSMO-RS, QMMM,   
  Crystal-QMMM, RESP, rigid body optimization, SF, symmetry and pop. for TD-DFT, various functionals, SOLVATOR                                   
                                                                         
[Other institutions]                                                     
  V. Asgeirsson          : NEB                                           
  Christoph Bannwarth    : sTDA-DFT, sTD-DFT, PBEh-3c, B97-3c, D3        
  Giovanni Bistoni       : ETS/NOCV, ADLD/ADEX, COVALED                  
  Martin Brehm           : Molecular dynamics                            
  Ronald Cardenas        : ETS/NOCV                                      
  Martina Colucci        : COVALED                                       
  Sebastian Ehlert       : rSCAN, r2SCAN, r2SCAN-3c, D4, dhf basis sets  
  Marvin Friede          : D4 for Fr, Ra, Ac-Lr                          
  Lars Goerigk           : TD-DFT with DH, B97 family of functionals     
  Stefan Grimme          : VdW corrections, initial TS optimization, DFT functionals, gCP, sTDA/sTD-DF 
  Waldemar Hujo          : DFT-NL                                        
  H. Jonsson             : NEB                                           
  Holger Kruse           : gCP                                           
  Marcel Mueller         : wB97X-3c, vDZP basis set                      
  Hagen Neugebauer       : wr2SCAN, Native XTB                           
  Gianluca Regni         : ADLD/ADEX                                     
  Tobias Risthaus        : pre 6.0 range-separated hybrid DFT and stability analysis
  Lukas Wittmann         : regularized MP2, r2SCAN double-hybrids, wr2SCAN        
                                                                         
We gratefully acknowledge several colleagues who have allowed us to      
interface, adapt or use parts of their codes:                            
  Ed Valeev, F. Pavosevic, A. Kumar             : LibInt (2-el integral package), F12 methods 
  Garnet Chan, S. Sharma, J. Yang, R. Olivares  : DMRG                   
  Ulf Ekstrom                                   : XCFun DFT Library      
  Mihaly Kallay                                 : mrcc  (arbitrary order and MRCC methods)
  Frank Weinhold                                : gennbo (NPA and NBO analysis)           
  Simon Mueller                                 : openCOSMO-RS                            
  Christopher J. Cramer and Donald G. Truhlar   : smd solvation model                     
  S Lehtola, MJT Oliveira, MAL Marques          : LibXC Library                           
  Liviu Ungur et al                             : ANISO software                          


 Your calculation uses the libint2 library for the computation of 2-el integrals
 For citations please refer to: http://libint.valeyev.net

 Your ORCA version has been built with support for libXC version: 7.0.0
 For citations please refer to: https://libxc.gitlab.io

 This ORCA versions uses:
   CBLAS   interface :  Fast vector & matrix operations
   LAPACKE interface :  Fast linear algebra routines
   SCALAPACK package :  Parallel linear algebra routines
   Shared memory     :  Shared parallel matrices
   BLAS/LAPACK       :  OpenBLAS 0.3.29  USE64BITINT DYNAMIC_ARCH NO_AFFINITY Zen SINGLE_THREADED
        Core in use  :  Zen
   Copyright (c) 2011-2014, The OpenBLAS Project


  ***********************************
  * Starting time: Wed Sep 10 13:34:44 2025
  * Host name:     wyk-Server
  * Process ID:    2285196
  * Working dir.:  /home/wyk/Documents/code/openQDC/MGMR/singlepointcalc/41/prod
  ***********************************

Your calculation utilizes the atom-pairwise dispersion correction
with the Becke-Johnson damping scheme (D3BJ)


Warning: RI is on but no J-basis has been assigned. Assigning Def2/J (nothing to worry about!)
================================================================================

----- Orbital basis set information -----
Your calculation utilizes the basis: def2-SVP
   F. Weigend and R. Ahlrichs, Phys. Chem. Chem. Phys. 7, 3297 (2005).

----- AuxJ basis set information -----
Your calculation utilizes the auxiliary basis: def2/J
   H-Rn: F. Weigend, Phys. Chem. Chem. Phys. 8, 1057 (2006).
   Fr-Lr: K. Eichkorn, F. Weigend, O. Treutler, R. Ahlrichs; Theor. Chem. Acc. 97, 119 (1997).

================================================================================
                                        WARNINGS
                       Please study these warnings very carefully!
================================================================================


================================================================================
                                       INPUT FILE
================================================================================
NAME = orca.inp
|  1> ! B3LYP def2-SVP d3 EnGrad 
|  2> %pal nprocs 6 end 
|  3> *xyz 0 1 
|  4> C   2.26236236979656 0.65974633825918 0.09737856396395
|  5> C   0.78624040891423 0.41639386238362 -0.07589698301509
|  6> H   2.68831570285412 1.12244079381251 -0.80945630502312
|  7> H   2.80823815790037 -0.27310649142933 0.29944468410943
|  8> H   2.44686124212364 1.36024737000609 0.9298162488783
|  9> C   0.19736995393438 -0.75521010056032 -0.02731342998244
| 10> O   -2.33351862629172 1.13481537092059 -0.22508774938584
| 11> C   -0.41411380521027 -1.91616550506752 0.01328765453556
| 12> H   -0.80242195970826 -2.32888482983974 0.95247729850685
| 13> H   -0.54428379054378 -2.52692159735108 -0.88848454900271
| 14> H   -2.16624914561671 1.04254583086801 0.72306967234594
| 15> H   -2.0606529477946 0.26898111677661 -0.56284683952221
| 16> H   0.13456043964205 1.28036384122137 -0.26420626640862
| 17> *
| 18> 
| 19>                          ****END OF INPUT****
================================================================================

                     *******************************
                     * Energy+Gradient Calculation *
                     *******************************

---------------------------------
CARTESIAN COORDINATES (ANGSTROEM)
---------------------------------
  C      2.262362    0.659746    0.097379
  C      0.786240    0.416394   -0.075897
  H      2.688316    1.122441   -0.809456
  H      2.808238   -0.273106    0.299445
  H      2.446861    1.360247    0.929816
  C      0.197370   -0.755210   -0.027313
  O     -2.333519    1.134815   -0.225088
  C     -0.414114   -1.916166    0.013288
  H     -0.802422   -2.328885    0.952477
  H     -0.544284   -2.526922   -0.888485
  H     -2.166249    1.042546    0.723070
  H     -2.060653    0.268981   -0.562847
  H      0.134560    1.280364   -0.264206

----------------------------
CARTESIAN COORDINATES (A.U.)
----------------------------
  NO LB      ZA    FRAG     MASS         X           Y           Z
   0 C     6.0000    0    12.011    4.275245    1.246740    0.184019
   1 C     6.0000    0    12.011    1.485779    0.786870   -0.143425
   2 H     1.0000    0     1.008    5.080180    2.121106   -1.529651
   3 H     1.0000    0     1.008    5.306801   -0.516096    0.565868
   4 H     1.0000    0     1.008    4.623898    2.570495    1.757098
   5 C     6.0000    0    12.011    0.372975   -1.427140   -0.051615
   6 O     8.0000    0    15.999   -4.409711    2.144490   -0.425354
   7 C     6.0000    0    12.011   -0.782562   -3.621028    0.025110
   8 H     1.0000    0     1.008   -1.516358   -4.400955    1.799921
   9 H     1.0000    0     1.008   -1.028547   -4.775190   -1.678992
  10 H     1.0000    0     1.008   -4.093618    1.970126    1.366404
  11 H     1.0000    0     1.008   -3.894070    0.508301   -1.063626
  12 H     1.0000    0     1.008    0.254282    2.419537   -0.499277

--------------------------------
INTERNAL COORDINATES (ANGSTROEM)
--------------------------------
 C      0   0   0     0.000000000000     0.00000000     0.00000000
 C      1   0   0     1.506048102185     0.00000000     0.00000000
 H      1   2   0     1.103572326924   110.57982576     0.00000000
 H      1   2   3     1.099556953871   111.75530862   239.18794190
 H      1   2   3     1.103491743800   110.68557685   118.16209845
 C      2   1   3     1.312167908600   125.44164397   119.37812436
 O      6   2   1     3.164918319607    79.82539376   173.60741126
 C      6   2   1     1.312775032904   178.85483726   188.10148798
 H      8   6   2     1.096903665430   121.60895563   261.52446964
 H      8   6   2     1.096886656140   121.48435057    82.64493804
 H      7   6   2     0.967210030744    75.13614381   270.08742480
 H      7   6   2     0.968610260693    42.49822042   142.64512262
 H      2   1   3     1.098449494923   118.30183788   299.69322486

---------------------------
INTERNAL COORDINATES (A.U.)
---------------------------
 C      0   0   0     0.000000000000     0.00000000     0.00000000
 C      1   0   0     2.846018457641     0.00000000     0.00000000
 H      1   2   0     2.085449466861   110.57982576     0.00000000
 H      1   2   3     2.077861511465   111.75530862   239.18794190
 H      1   2   3     2.085297186825   110.68557685   118.16209845
 C      2   1   3     2.479637988974   125.44164397   119.37812436
 O      6   2   1     5.980828860287    79.82539376   173.60741126
 C      6   2   1     2.480785287638   178.85483726   188.10148798
 H      8   6   2     2.072847522956   121.60895563   261.52446964
 H      8   6   2     2.072815380057   121.48435057    82.64493804
 H      7   6   2     1.827762072088    75.13614381   270.08742480
 H      7   6   2     1.830408123217    42.49822042   142.64512262
 H      2   1   3     2.075768717348   118.30183788   299.69322486

---------------------
BASIS SET INFORMATION
---------------------
There are 3 groups of distinct atoms

 Group   1 Type C   : 7s4p1d contracted to 3s2p1d pattern {511/31/1}
 Group   2 Type H   : 4s1p contracted to 2s1p pattern {31/1}
 Group   3 Type O   : 7s4p1d contracted to 3s2p1d pattern {511/31/1}

Atom   0C    basis set group =>   1
Atom   1C    basis set group =>   1
Atom   2H    basis set group =>   2
Atom   3H    basis set group =>   2
Atom   4H    basis set group =>   2
Atom   5C    basis set group =>   1
Atom   6O    basis set group =>   3
Atom   7C    basis set group =>   1
Atom   8H    basis set group =>   2
Atom   9H    basis set group =>   2
Atom  10H    basis set group =>   2
Atom  11H    basis set group =>   2
Atom  12H    basis set group =>   2
---------------------------------
AUXILIARY/J BASIS SET INFORMATION
---------------------------------
There are 3 groups of distinct atoms

 Group   1 Type C   : 12s5p4d2f1g contracted to 6s4p3d1f1g pattern {711111/2111/211/2/1}
 Group   2 Type H   : 5s2p1d contracted to 3s1p1d pattern {311/2/1}
 Group   3 Type O   : 12s5p4d2f1g contracted to 6s4p3d1f1g pattern {711111/2111/211/2/1}

Atom   0C    basis set group =>   1
Atom   1C    basis set group =>   1
Atom   2H    basis set group =>   2
Atom   3H    basis set group =>   2
Atom   4H    basis set group =>   2
Atom   5C    basis set group =>   1
Atom   6O    basis set group =>   3
Atom   7C    basis set group =>   1
Atom   8H    basis set group =>   2
Atom   9H    basis set group =>   2
Atom  10H    basis set group =>   2
Atom  11H    basis set group =>   2
Atom  12H    basis set group =>   2


           ************************************************************
           *        Program running with 6 parallel MPI-processes     *
           *              working on a common directory               *
           ************************************************************
------------------------------------------------------------------------------
                             ORCA STARTUP CALCULATIONS
                           -- RI-GTO INTEGRALS CHOSEN --
------------------------------------------------------------------------------
------------------------------------------------------------------------------
                   ___                                                        
                  /   \      - P O W E R E D   B Y -                         
                 /     \                                                     
                 |  |  |   _    _      __       _____    __    __             
                 |  |  |  | |  | |    /  \     |  _  \  |  |  /  |          
                  \  \/   | |  | |   /    \    | | | |  |  | /  /          
                 / \  \   | |__| |  /  /\  \   | |_| |  |  |/  /          
                |  |  |   |  __  | /  /__\  \  |    /   |      \           
                |  |  |   | |  | | |   __   |  |    \   |  |\   \          
                \     /   | |  | | |  |  |  |  | |\  \  |  | \   \       
                 \___/    |_|  |_| |__|  |__|  |_| \__\ |__|  \__/        
                                                                              
                      - O R C A' S   B I G   F R I E N D -                    
                                      &                                       
                       - I N T E G R A L  F E E D E R -                       
                                                                              
 v1 FN, 2020, v2 2021, v3 2022-2024                                           
------------------------------------------------------------------------------


----------------------
SHARK INTEGRAL PACKAGE
----------------------

Number of atoms                             ...     13
Number of basis functions                   ...    110
Number of shells                            ...     54
Maximum angular momentum                    ...      2
Integral batch strategy                     ... SHARK/LIBINT Hybrid
RI-J (if used) integral strategy            ... SPLIT-RIJ (Revised 2003 algorithm where possible)
Printlevel                                  ...      1
Contraction scheme used                     ... SEGMENTED contraction
Prescreening option                         ... SCHWARTZ
   Thresh                                   ... 2.500e-11
   Tcut                                     ... 2.500e-12
   Tpresel                                  ... 2.500e-12 
Coulomb Range Separation                    ... NOT USED
Exchange Range Separation                   ... NOT USED
Multipole approximations                    ... NOT USED
Finite Nucleus Model                        ... NOT USED
CABS basis                                  ... NOT available
Auxiliary Coulomb fitting basis             ... AVAILABLE
   # of basis functions in Aux-J            ...    333
   # of shells in Aux-J                     ...    115
   Maximum angular momentum in Aux-J        ...      4
Auxiliary J/K fitting basis                 ... NOT available
Auxiliary Correlation fitting basis         ... NOT available
Auxiliary 'external' fitting basis          ... NOT available

Checking pre-screening integrals            ... done (  0.0 sec) Dimension = 54
   => SHARK Basis and OBASIS are compatible. Storing Pre-screening
Shell pair information
Shell pair cut-off parameter TPreSel        ...   2.5e-12
Total number of shell pairs                 ...      1485
Shell pairs after pre-screening             ...      1413
Total number of primitive shell pairs       ...      5139
Primitive shell pairs kept                  ...      3717
          la=0 lb=0:    475 shell pairs
          la=1 lb=0:    535 shell pairs
          la=1 lb=1:    159 shell pairs
          la=2 lb=0:    144 shell pairs
          la=2 lb=1:     86 shell pairs
          la=2 lb=2:     14 shell pairs

Checking whether 4 symmetric matrices of dimension 110 fit in memory
:Max Core in MB      =   4096.00
 MB in use           =      5.07
 MB left             =   4090.93
 MB needed           =      0.19
 Data fit in memory  = YES
Calculating RI/J V-Matrix + Cholesky decomp.... done (  0.0 sec)
Calculating Nuclear repulsion               ... done (  0.0 sec) ENN=    155.262496467411 Eh

Diagonalization of the overlap matrix:
Smallest eigenvalue                        ... 1.113e-03
Time for diagonalization                   ...    0.002 sec
Threshold for overlap eigenvalues          ... 1.000e-07
Number of eigenvalues below threshold      ... 0
Time for construction of square roots      ...    0.001 sec
Total time needed                          ...    0.004 sec

-------------------
DFT GRID GENERATION
-------------------

General Integration Accuracy     IntAcc      ... 4.388
Radial Grid Type                 RadialGrid  ... OptM3 with GC (2021)
Angular Grid (max. ang.)         AngularGrid ... 4 (Lebedev-302)
Angular grid pruning method      GridPruning ... 4 (adaptive)
Weight generation scheme         WeightScheme... mBecke (2022)
Basis function cutoff            BFCut       ... 1.0000e-11
Integration weight cutoff        WCut        ... 1.0000e-14
Partially contracted basis set               ... off
Rotationally invariant grid construction     ... off
Angular grids for H and He will be reduced by one unit

Total number of grid points                  ...    56360
Total number of batches                      ...      888
Average number of points per batch           ...       63
Average number of grid points per atom       ...     4335

--------------------
COSX GRID GENERATION
--------------------

GRIDX 1
-------
General Integration Accuracy     IntAcc      ... 3.816
Radial Grid Type                 RadialGrid  ... OptM3 with GC (2021)
Angular Grid (max. ang.)         AngularGrid ... 1 (Lebedev-50)
Angular grid pruning method      GridPruning ... 4 (adaptive)
Weight generation scheme         WeightScheme... mBecke (2022)
Basis function cutoff            BFCut       ... 1.0000e-11
Integration weight cutoff        WCut        ... 1.0000e-14
Partially contracted basis set               ... on
Rotationally invariant grid construction     ... off
Angular grids for H and He will be reduced by one unit

Total number of grid points                  ...     7277
Total number of batches                      ...       66
Average number of points per batch           ...      110
Average number of grid points per atom       ...      560
UseSFitting                                  ... on

GRIDX 2
-------
General Integration Accuracy     IntAcc      ... 4.020
Radial Grid Type                 RadialGrid  ... OptM3 with GC (2021)
Angular Grid (max. ang.)         AngularGrid ... 2 (Lebedev-110)
Angular grid pruning method      GridPruning ... 4 (adaptive)
Weight generation scheme         WeightScheme... mBecke (2022)
Basis function cutoff            BFCut       ... 1.0000e-11
Integration weight cutoff        WCut        ... 1.0000e-14
Partially contracted basis set               ... on
Rotationally invariant grid construction     ... off
Angular grids for H and He will be reduced by one unit

Total number of grid points                  ...    15358
Total number of batches                      ...      126
Average number of points per batch           ...      121
Average number of grid points per atom       ...     1181
UseSFitting                                  ... on

GRIDX 3
-------
General Integration Accuracy     IntAcc      ... 4.338
Radial Grid Type                 RadialGrid  ... OptM3 with GC (2021)
Angular Grid (max. ang.)         AngularGrid ... 3 (Lebedev-194)
Angular grid pruning method      GridPruning ... 4 (adaptive)
Weight generation scheme         WeightScheme... mBecke (2022)
Basis function cutoff            BFCut       ... 1.0000e-11
Integration weight cutoff        WCut        ... 1.0000e-14
Partially contracted basis set               ... on
Rotationally invariant grid construction     ... off
Angular grids for H and He will be reduced by one unit

Total number of grid points                  ...    33705
Total number of batches                      ...      269
Average number of points per batch           ...      125
Average number of grid points per atom       ...     2593
UseSFitting                                  ... on
Grids setup in   0.6 sec
Initializing property integral containers    ... done (  0.0 sec)

SHARK setup successfully completed in   0.7 seconds

Maximum memory used throughout the entire STARTUP-calculation: 15.4 MB


           ************************************************************
           *        Program running with 6 parallel MPI-processes     *
           *              working on a common directory               *
           ************************************************************
-------------------------------------------------------------------------------
                                 ORCA GUESS
                   Start orbitals & Density for SCF / CASSCF
-------------------------------------------------------------------------------

------------
SCF SETTINGS
------------
Hamiltonian:
 Density Functional     Method          .... DFT(GTOs)
 Exchange Functional    Exchange        .... B88
   X-Alpha parameter    XAlpha          ....  0.666667
   Becke's b parameter  XBeta           ....  0.004200
 Correlation Functional Correlation     .... LYP
 LDA part of GGA corr.  LDAOpt          .... VWN-5
 Gradients option       PostSCFGGA      .... off
 Hybrid DFT is turned on
   Fraction HF Exchange ScalHFX         ....  0.200000
   Scaling of DF-GGA-X  ScalDFX         ....  0.720000
   Scaling of DF-GGA-C  ScalDFC         ....  0.810000
   Scaling of DF-LDA-C  ScalLDAC        ....  1.000000
   Perturbative correction              ....  0.000000
   NL short-range parameter             ....  4.800000
 RI-approximation to the Coulomb term is turned on
   Number of AuxJ basis functions       .... 333
   RIJ-COSX (HFX calculated with COS-X)).... on


General Settings:
 Integral files         IntName         .... orca
 Hartree-Fock type      HFTyp           .... RHF
 Total Charge           Charge          ....    0
 Multiplicity           Mult            ....    1
 Number of Electrons    NEL             ....   40
 Basis Dimension        Dim             ....  110
 Nuclear Repulsion      ENuc            ....    155.2624964674 Eh

Convergence Acceleration:
 AO-DIIS                CNVDIIS         .... on
   Start iteration      DIISMaxIt       ....    12
   Startup error        DIISStart       ....  0.200000
   # of expansion vecs  DIISMaxEq       ....     5
   Bias factor          DIISBfac        ....   1.050
   Max. coefficient     DIISMaxC        ....  10.000
 MO-DIIS                CNVKDIIS        .... off
 Trust-Rad. Augm. Hess. CNVTRAH         .... auto
   Auto Start mean grad. ratio tolernc. ....  1.125000
   Auto Start start iteration           ....    50
   Auto Start num. interpolation iter.  ....    10
   Max. Number of Micro iterations      ....    24
   Max. Number of Macro iterations      .... Maxiter - #DIIS iter
   Number of Davidson start vectors     ....     2
   Converg. threshold    (grad. norm)   ....   1.000e-05
   Grad. Scal. Fac. for Micro threshold ....   0.100
   Minimum threshold for Micro iter.    ....   1.000e-02
   NR start threshold (gradient norm)   ....   1.000e-04
   Initial trust radius                 ....   0.400
   Minimum AH scaling param. (alpha)    ....   1.000
   Maximum AH scaling param. (alpha)    .... 1000.000
   Quad. conv. algorithm                .... NR
   White noise on init. David. guess    .... on
   Maximum white noise                  ....   0.010
   Pseudo random numbers                .... off
   Inactive MOs                         .... canonical
   Orbital update algorithm             .... Taylor
   Preconditioner                       .... Diag
   Full preconditioner red. dimension   ....   250
 SOSCF                 CNVSOSCF           .... on
   Start iteration     SOSCFMaxIt         ....   150
   Startup grad/error  SOSCFStart         ....  0.003300
   Hessian update      SOSCFHessUp        .... L-BFGS
   Autom. constraints  SOSCFAutoConstrain .... off
 Level Shifting         CNVShift        .... on
   Level shift para.    LevelShift      ....    0.2500
   Turn off err/grad.   ShiftErr        ....    0.0010
 Zerner damping         CNVZerner       .... off
 Static damping         CNVDamp         .... on
   Fraction old density DampFac         ....    0.7000
   Max. Damping (<1)    DampMax         ....    0.9800
   Min. Damping (>=0)   DampMin         ....    0.0000
   Turn off err/grad.   DampErr         ....    0.1000

SCF Procedure:
 Maximum # iterations   MaxIter         ....   125
 SCF integral mode      SCFMode         .... Direct
   Integral package                     .... SHARK and LIBINT hybrid scheme
 Reset frequency        DirectResetFreq ....    20
 Integral Threshold     Thresh          ....  2.500e-11 Eh
 Primitive CutOff       TCut            ....  2.500e-12 Eh

Convergence Tolerance:
 Convergence Check Mode ConvCheckMode   .... Total+1el-Energy
 Convergence forced     ConvForced      .... 0
 Energy Change          TolE            ....  1.000e-08 Eh
 1-El. energy change                    ....  1.000e-05 Eh
 Orbital Gradient       TolG            ....  1.000e-05
 Orbital Rotation angle TolX            ....  1.000e-05
 DIIS Error             TolErr          ....  5.000e-07

------------------------------
INITIAL GUESS: MODEL POTENTIAL
------------------------------
Loading Hartree-Fock densities                     ... done
Calculating cut-offs                               ... done
Initializing the effective Hamiltonian             ... done
Setting up the integral package (SHARK)            ... done
Starting the Coulomb interaction                   ... done (   0.0 sec)
Making the grid                                    ... done (   0.1 sec)
Mapping shells                                     ... done
Starting the XC term evaluation                    ... done (   0.0 sec)
  promolecular density results
     # of electrons  =     39.995420897
     EX              =    -31.059338645
     EC              =     -1.290731347
     EX+EC           =    -32.350069992
Transforming the Hamiltonian                       ... done (   0.0 sec)
Diagonalizing the Hamiltonian                      ... done (   0.0 sec)
Back transforming the eigenvectors                 ... done (   0.0 sec)
Now organizing SCF variables                       ... done
                      ------------------
                      INITIAL GUESS DONE (   0.1 sec)
                      ------------------
             **** ENERGY FILE WAS UPDATED (orca.en.tmp) ****
Finished Guess after   0.3 sec
Maximum memory used throughout the entire GUESS-calculation: 7.5 MB


           ************************************************************
           *        Program running with 6 parallel MPI-processes     *
           *              working on a common directory               *
           ************************************************************

-------------------------------------------------------------------------------------------
                                      ORCA LEAN-SCF
                              memory conserving SCF solver
-------------------------------------------------------------------------------------------

----------------------------------------D-I-I-S--------------------------------------------
Iteration    Energy (Eh)           Delta-E    RMSDP     MaxDP     DIISErr   Damp  Time(sec)
-------------------------------------------------------------------------------------------
               ***  Starting incremental Fock matrix formation  ***
    1    -231.8800912313843696     0.00e+00  1.12e-02  8.67e-02  2.97e-01  0.700   0.5
    2    -231.9749076909435530    -9.48e-02  7.39e-03  4.68e-02  1.24e-01  0.700   0.3
                               ***Turning on AO-DIIS***
    3    -232.0123066236852196    -3.74e-02  2.73e-03  1.62e-02  3.96e-02  0.700   0.3
    4    -232.0344228327587075    -2.21e-02  4.62e-03  2.20e-02  1.95e-02  0.000   0.3
    5    -232.0827600496394894    -4.83e-02  9.40e-04  5.30e-03  8.23e-03  0.000   0.3
                              *** Initializing SOSCF ***
---------------------------------------S-O-S-C-F--------------------------------------
Iteration    Energy (Eh)           Delta-E    RMSDP     MaxDP     MaxGrad    Time(sec)
--------------------------------------------------------------------------------------
    6    -232.0830205130193349    -2.60e-04  3.20e-04  1.74e-03  2.29e-03     0.3
               *** Restarting incremental Fock matrix formation ***
    7    -232.0830407724160409    -2.03e-05  2.01e-04  9.44e-04  2.17e-04     0.5
    8    -232.0830410541079800    -2.82e-07  6.00e-05  5.83e-04  3.12e-04     0.4
    9    -232.0830422567653955    -1.20e-06  4.27e-05  3.31e-04  1.14e-04     0.4
   10    -232.0830422293561242     2.74e-08  1.97e-05  1.49e-04  7.22e-05     0.4
   11    -232.0830423731600831    -1.44e-07  2.60e-06  2.24e-05  4.24e-06     0.3
   12    -232.0830423737453430    -5.85e-10  9.79e-07  8.61e-06  3.20e-06     0.3
                 **** Energy Check signals convergence ****

               *****************************************************
               *                     SUCCESS                       *
               *           SCF CONVERGED AFTER  12 CYCLES          *
               *****************************************************

Recomputing exchange energy using gridx3       ... done (    0.691 sec)
Old exchange energy                            :     -6.333695206 Eh
New exchange energy                            :     -6.333675549 Eh
Exchange energy change after final integration :      0.000019658 Eh
Total energy after final integration           :   -232.083022717 Eh
             **** ENERGY FILE WAS UPDATED (orca.en.tmp) ****

----------------
TOTAL SCF ENERGY
----------------

Total Energy       :       -232.08302271680844 Eh           -6315.30011 eV

Components:
Nuclear Repulsion  :        155.26249646741070 Eh            4224.90732 eV
Electronic Energy  :       -387.34553884189017 Eh          -10540.20797 eV
One Electron Energy:       -620.75529251445118 Eh          -16891.61026 eV
Two Electron Energy:        233.40975367256098 Eh            6351.40230 eV

Virial components:
Potential Energy   :       -461.78217947270417 Eh          -12565.73193 eV
Kinetic Energy     :        229.69915675589573 Eh            6250.43182 eV
Virial Ratio       :          2.01037820945702

DFT components:
N(Alpha)           :       19.999976697484 electrons
N(Beta)            :       19.999976697484 electrons
N(Total)           :       39.999953394968 electrons
E(X)               :      -25.149285434154 Eh       
E(C)               :       -1.540629298591 Eh       
E(XC)              :      -26.689914732745 Eh       

---------------
SCF CONVERGENCE
---------------

  Last Energy change         ...    5.8526e-10  Tolerance :   1.0000e-08
  Last MAX-Density change    ...    8.6131e-06  Tolerance :   1.0000e-07
  Last RMS-Density change    ...    9.7936e-07  Tolerance :   5.0000e-09
  Last DIIS Error            ...    2.2894e-03  Tolerance :   5.0000e-07
  Last Orbital Gradient      ...    3.1960e-06  Tolerance :   1.0000e-05
  Last Orbital Rotation      ...    4.4465e-06  Tolerance :   1.0000e-05


----------------
ORBITAL ENERGIES
----------------

  NO   OCC          E(Eh)            E(eV) 
   0   2.0000     -19.117132      -520.2036 
   1   2.0000     -10.203494      -277.6512 
   2   2.0000     -10.199767      -277.5498 
   3   2.0000     -10.198433      -277.5135 
   4   2.0000     -10.193635      -277.3829 
   5   2.0000      -0.975761       -26.5518 
   6   2.0000      -0.796822       -21.6826 
   7   2.0000      -0.732652       -19.9365 
   8   2.0000      -0.649432       -17.6719 
   9   2.0000      -0.510505       -13.8916 
  10   2.0000      -0.504392       -13.7252 
  11   2.0000      -0.466559       -12.6957 
  12   2.0000      -0.444704       -12.1010 
  13   2.0000      -0.422211       -11.4889 
  14   2.0000      -0.412999       -11.2383 
  15   2.0000      -0.377844       -10.2817 
  16   2.0000      -0.366801        -9.9812 
  17   2.0000      -0.289540        -7.8788 
  18   2.0000      -0.272530        -7.4159 
  19   2.0000      -0.257818        -7.0156 
  20   0.0000       0.005168         0.1406 
  21   0.0000       0.013688         0.3725 
  22   0.0000       0.056450         1.5361 
  23   0.0000       0.084658         2.3037 
  24   0.0000       0.094830         2.5804 
  25   0.0000       0.125082         3.4037 
  26   0.0000       0.127467         3.4685 
  27   0.0000       0.142177         3.8688 
  28   0.0000       0.159025         4.3273 
  29   0.0000       0.164258         4.4697 
  30   0.0000       0.244813         6.6617 
*Only the first 10 virtual orbitals were printed.

                    ********************************
                    * MULLIKEN POPULATION ANALYSIS *
                    ********************************

-----------------------
MULLIKEN ATOMIC CHARGES
-----------------------
   0 C :    0.066391
   1 C :   -0.234278
   2 H :    0.029338
   3 H :    0.019456
   4 H :    0.026197
   5 C :    0.128307
   6 O :   -0.279436
   7 C :   -0.208951
   8 H :    0.053444
   9 H :    0.056848
  10 H :    0.150482
  11 H :    0.157230
  12 H :    0.034972
Sum of atomic charges:    0.0000000

--------------------------------
MULLIKEN REDUCED ORBITAL CHARGES
--------------------------------
  0 C s       :     2.962700  s :     2.962700
      pz      :     1.003537  p :     2.942062
      px      :     0.937027
      py      :     1.001498
      dz2     :     0.004783  d :     0.028846
      dxz     :     0.005194
      dyz     :     0.006709
      dx2y2   :     0.006022
      dxy     :     0.006138

  1 C s       :     3.201875  s :     3.201875
      pz      :     1.028584  p :     2.995492
      px      :     0.962259
      py      :     1.004650
      dz2     :     0.002427  d :     0.036911
      dxz     :     0.004968
      dyz     :     0.006032
      dx2y2   :     0.010025
      dxy     :     0.013460

  2 H s       :     0.947274  s :     0.947274
      pz      :     0.011228  p :     0.023388
      px      :     0.005556
      py      :     0.006605

  3 H s       :     0.957568  s :     0.957568
      pz      :     0.005188  p :     0.022976
      px      :     0.006182
      py      :     0.011606

  4 H s       :     0.950442  s :     0.950442
      pz      :     0.010406  p :     0.023361
      px      :     0.004376
      py      :     0.008580

  5 C s       :     3.236847  s :     3.236847
      pz      :     1.007153  p :     2.599020
      px      :     0.871073
      py      :     0.720794
      dz2     :     0.002566  d :     0.035826
      dxz     :     0.002598
      dyz     :     0.010326
      dx2y2   :     0.011374
      dxy     :     0.008962

  6 O s       :     3.684868  s :     3.684868
      pz      :     1.250161  p :     4.583749
      px      :     1.866578
      py      :     1.467011
      dz2     :     0.004191  d :     0.010818
      dxz     :     0.000955
      dyz     :     0.001478
      dx2y2   :     0.002464
      dxy     :     0.001730

  7 C s       :     3.158700  s :     3.158700
      pz      :     0.942210  p :     3.022017
      px      :     1.066790
      py      :     1.013017
      dz2     :     0.005439  d :     0.028234
      dxz     :     0.002709
      dyz     :     0.009499
      dx2y2   :     0.005488
      dxy     :     0.005099

  8 H s       :     0.922966  s :     0.922966
      pz      :     0.011918  p :     0.023590
      px      :     0.006074
      py      :     0.005597

  9 H s       :     0.919551  s :     0.919551
      pz      :     0.011307  p :     0.023601
      px      :     0.004890
      py      :     0.007404

 10 H s       :     0.778780  s :     0.778780
      pz      :     0.034025  p :     0.070738
      px      :     0.020244
      py      :     0.016469

 11 H s       :     0.771860  s :     0.771860
      pz      :     0.018596  p :     0.070910
      px      :     0.021145
      py      :     0.031170

 12 H s       :     0.940992  s :     0.940992
      pz      :     0.005077  p :     0.024035
      px      :     0.008089
      py      :     0.010869



                     *******************************
                     * LOEWDIN POPULATION ANALYSIS *
                     *******************************

----------------------
LOEWDIN ATOMIC CHARGES
----------------------
   0 C :   -0.042393
   1 C :   -0.076311
   2 H :    0.035332
   3 H :    0.031104
   4 H :    0.033913
   5 C :    0.001372
   6 O :   -0.131687
   7 C :   -0.111255
   8 H :    0.038828
   9 H :    0.040477
  10 H :    0.074884
  11 H :    0.069923
  12 H :    0.035814

-------------------------------
LOEWDIN REDUCED ORBITAL CHARGES
-------------------------------
  0 C s       :     2.836871  s :     2.836871
      pz      :     1.062337  p :     3.132228
      px      :     1.008404
      py      :     1.061487
      dz2     :     0.012392  d :     0.073294
      dxz     :     0.012417
      dyz     :     0.016983
      dx2y2   :     0.016385
      dxy     :     0.015118

  1 C s       :     2.866850  s :     2.866850
      pz      :     1.004296  p :     3.119475
      px      :     1.038291
      py      :     1.076888
      dz2     :     0.006038  d :     0.089986
      dxz     :     0.009170
      dyz     :     0.011432
      dx2y2   :     0.028357
      dxy     :     0.034989

  2 H s       :     0.900906  s :     0.900906
      pz      :     0.031029  p :     0.063762
      px      :     0.015797
      py      :     0.016937

  3 H s       :     0.905085  s :     0.905085
      pz      :     0.012881  p :     0.063812
      px      :     0.018401
      py      :     0.032530

  4 H s       :     0.902418  s :     0.902418
      pz      :     0.028105  p :     0.063670
      px      :     0.012369
      py      :     0.023196

  5 C s       :     2.917657  s :     2.917657
      pz      :     0.973898  p :     2.997858
      px      :     0.945610
      py      :     1.078350
      dz2     :     0.006504  d :     0.083113
      dxz     :     0.005703
      dyz     :     0.022425
      dx2y2   :     0.025995
      dxy     :     0.022485

  6 O s       :     3.434850  s :     3.434850
      pz      :     1.330522  p :     4.677091
      px      :     1.823598
      py      :     1.522972
      dz2     :     0.009430  d :     0.019745
      dxz     :     0.001402
      dyz     :     0.002615
      dx2y2   :     0.004039
      dxy     :     0.002259

  7 C s       :     2.876298  s :     2.876298
      pz      :     1.041709  p :     3.162053
      px      :     1.057993
      py      :     1.062351
      dz2     :     0.014436  d :     0.072904
      dxz     :     0.007387
      dyz     :     0.026089
      dx2y2   :     0.011922
      dxy     :     0.013070

  8 H s       :     0.893157  s :     0.893157
      pz      :     0.034877  p :     0.068015
      px      :     0.018130
      py      :     0.015008

  9 H s       :     0.891409  s :     0.891409
      pz      :     0.033178  p :     0.068115
      px      :     0.014742
      py      :     0.020195

 10 H s       :     0.749366  s :     0.749366
      pz      :     0.085259  p :     0.175751
      px      :     0.053101
      py      :     0.037391

 11 H s       :     0.751166  s :     0.751166
      pz      :     0.035538  p :     0.178911
      px      :     0.056644
      py      :     0.086729

 12 H s       :     0.891332  s :     0.891332
      pz      :     0.016119  p :     0.072854
      px      :     0.026320
      py      :     0.030415



                      *****************************
                      * MAYER POPULATION ANALYSIS *
                      *****************************

  NA   - Mulliken gross atomic population
  ZA   - Total nuclear charge
  QA   - Mulliken gross atomic charge
  VA   - Mayer's total valence
  BVA  - Mayer's bonded valence
  FA   - Mayer's free valence

  ATOM       NA         ZA         QA         VA         BVA        FA
  0 C      5.9336     6.0000     0.0664     3.9538     3.9538    -0.0000
  1 C      6.2343     6.0000    -0.2343     3.8357     3.8357    -0.0000
  2 H      0.9707     1.0000     0.0293     0.9851     0.9851    -0.0000
  3 H      0.9805     1.0000     0.0195     0.9956     0.9956    -0.0000
  4 H      0.9738     1.0000     0.0262     0.9853     0.9853    -0.0000
  5 C      5.8717     6.0000     0.1283     3.8914     3.8914    -0.0000
  6 O      8.2794     8.0000    -0.2794     2.0986     2.0986     0.0000
  7 C      6.2090     6.0000    -0.2090     3.8265     3.8265     0.0000
  8 H      0.9466     1.0000     0.0534     0.9772     0.9772     0.0000
  9 H      0.9432     1.0000     0.0568     0.9772     0.9772     0.0000
 10 H      0.8495     1.0000     0.1505     1.0177     1.0177     0.0000
 11 H      0.8428     1.0000     0.1572     1.0376     1.0376     0.0000
 12 H      0.9650     1.0000     0.0350     1.0481     1.0481    -0.0000

  Mayer bond orders larger than 0.100000
B(  0-C ,  1-C ) :   1.0548 B(  0-C ,  2-H ) :   0.9567 B(  0-C ,  3-H ) :   0.9708 
B(  0-C ,  4-H ) :   0.9573 B(  1-C ,  5-C ) :   1.8411 B(  1-C , 12-H ) :   0.9107 
B(  5-C ,  7-C ) :   1.9290 B(  6-O , 10-H ) :   1.0031 B(  6-O , 11-H ) :   0.9913 
B(  7-C ,  8-H ) :   0.9356 B(  7-C ,  9-H ) :   0.9350 

-------
TIMINGS
-------

Total SCF time: 0 days 0 hours 0 min 5 sec 

Total time                  ....       5.568 sec
Sum of individual times     ....       5.250 sec  ( 94.3%)

SCF preparation             ....       0.172 sec  (  3.1%)
Fock matrix formation       ....       4.893 sec  ( 87.9%)
  Startup                   ....       0.004 sec  (  0.1% of F)
  Split-RI-J                ....       0.392 sec  (  8.0% of F)
  Chain of spheres X        ....       3.617 sec  ( 73.9% of F)
  XC integration            ....       1.044 sec  ( 21.3% of F)
    XC Preparation          ....       0.000 sec  (  0.0% of XC)
    Basis function eval.    ....       0.317 sec  ( 30.4% of XC)
    Density eval.           ....       0.159 sec  ( 15.3% of XC)
    XC-Functional eval.     ....       0.074 sec  (  7.1% of XC)
    XC-Potential eval.      ....       0.182 sec  ( 17.4% of XC)
Diagonalization             ....       0.000 sec  (  0.0%)
Density matrix formation    ....       0.025 sec  (  0.4%)
Total Energy calculation    ....       0.014 sec  (  0.3%)
Population analysis         ....       0.011 sec  (  0.2%)
Orbital Transformation      ....       0.013 sec  (  0.2%)
Orbital Orthonormalization  ....       0.000 sec  (  0.0%)
DIIS solution               ....       0.073 sec  (  1.3%)
SOSCF solution              ....       0.050 sec  (  0.9%)
Finished LeanSCF after   5.6 sec

Maximum memory used throughout the entire LEANSCF-calculation: 9.5 MB


-------------------------------------------------------------------------------
                          DFT DISPERSION CORRECTION                            
                                                                               
                              DFTD3 V3.1  Rev 1                                
                          USING Becke-Johnson damping                          
-------------------------------------------------------------------------------
The B3LYP functional is recognized
Active option DFTDOPT                   ...         4   

molecular C6(AA) [au] = 1368.027972 


            DFT-D V3
 parameters
 s6 scaling factor         :     1.0000 
 a1 scaling factor         :     0.3981 
 s8 scaling factor         :     1.9889 
 a2 scaling factor         :     4.4211 
 ad hoc parameters k1-k3   :    16.0000     1.3333    -4.0000 

 Edisp/kcal,au: -8.467306818045  -0.013493510879 
 E6   /kcal   :  -4.145682044 
 E8   /kcal   :  -4.321624774 
 % E8         :  51.038953318 

-------------------------   ----------------
Dispersion correction           -0.013493511
-------------------------   ----------------


-------------------------   --------------------
FINAL SINGLE POINT ENERGY      -232.096516227687
-------------------------   --------------------



           ************************************************************
           *        Program running with 6 parallel MPI-processes     *
           *              working on a common directory               *
           ************************************************************
------------------------------------------------------------------------------
                         ORCA SCF GRADIENT CALCULATION
------------------------------------------------------------------------------

Nuc. rep. gradient        (SHARK) ... done (  0.0 sec)
HCore & Overlap gradient  (SHARK) ... done (  0.0 sec)
Split-RIJ-J gradient      (SHARK) ... done (  0.2 sec)
done (  2.6 sec)
XC gradient                       ... done (  0.5 sec)
Dispersion correction             ... done (  0.0 sec)

-------------------
DISPERSION GRADIENT
-------------------

   1   C   :    0.000297600    0.000162955    0.000015563
   2   C   :    0.000364361    0.000203579   -0.000023466
   3   H   :    0.000166183    0.000087069   -0.000047464
   4   H   :    0.000221325    0.000027670    0.000028331
   5   H   :    0.000152924    0.000101186    0.000065535
   6   C   :    0.000004013   -0.000329342   -0.000018830
   7   O   :   -0.000432873    0.000265373   -0.000027662
   8   C   :   -0.000119715   -0.000604605    0.000011528
   9   H   :   -0.000049496   -0.000203630    0.000073558
  10   H   :   -0.000040177   -0.000198993   -0.000051101
  11   H   :   -0.000282757    0.000178759    0.000077550
  12   H   :   -0.000286869    0.000141778   -0.000065198
  13   H   :    0.000005482    0.000168202   -0.000038345

Difference to translation invariance:
           :    0.0000000000   -0.0000000000   -0.0000000000

Difference to rotation invariance:
           :    0.0000000000    0.0000000000   -0.0000000000

Norm of the Dispersion gradient    ...    0.0012292116
RMS gradient                       ...    0.0001968314
MAX gradient                       ...    0.0006046050

------------------
CARTESIAN GRADIENT
------------------

   1   C   :   -0.000029115   -0.000025234    0.000087380
   2   C   :   -0.000038432    0.000085241   -0.000020907
   3   H   :    0.000057799   -0.000067040    0.000012522
   4   H   :   -0.000005924    0.000024937   -0.000011974
   5   H   :    0.000003704    0.000059980   -0.000027114
   6   C   :   -0.000011259   -0.000015423   -0.000058663
   7   O   :   -0.000116314    0.000010746    0.000042558
   8   C   :    0.000018881   -0.000025279   -0.000020240
   9   H   :    0.000000000   -0.000008362   -0.000029015
  10   H   :   -0.000014530   -0.000025145    0.000023534
  11   H   :    0.000079701    0.000012955   -0.000069889
  12   H   :    0.000021239   -0.000009017    0.000057572
  13   H   :    0.000034249   -0.000018359    0.000014235

Difference to translation invariance:
           :   -0.0000000000    0.0000000001   -0.0000000000

Difference to rotation invariance:
           :   -0.0000192549   -0.0000497819   -0.0000164913

Norm of the Cartesian gradient     ...    0.0002671676
RMS gradient                       ...    0.0000427811
MAX gradient                       ...    0.0001163137

-------
TIMINGS
-------

Total SCF gradient time     ....        3.304 sec

Densities                   ....       0.000 sec  (  0.0%)
One electron gradient       ....       0.029 sec  (  0.9%)
RI-J Coulomb gradient       ....       0.174 sec  (  5.3%)
COSX gradient               ....       2.553 sec  ( 77.3%)
XC gradient                 ....       0.510 sec  ( 15.4%)

Maximum memory used throughout the entire SCFGRAD-calculation: 27.4 MB


           ************************************************************
           *        Program running with 6 parallel MPI-processes     *
           *              working on a common directory               *
           ************************************************************

------------------------------------------------------------------------------
                              ORCA PROPERTY CALCULATIONS
------------------------------------------------------------------------------

GBWName                                 ... orca.gbw
Number of atoms                         ...     13
Number of basis functions               ...    110
Max core memory                         ...   4096 MB

Electric properties:
Dipole moment                           ... YES
Quadrupole moment                       ...  NO
Static polarizability (Dipole/Dipole)   ...  NO
Static polarizability (Dipole/Quad.)    ...  NO
Static polarizability (Quad./Quad.)     ...  NO
Static polarizability (Velocity)        ...  NO
Static hyperpolarizability              ...  NO

Atomic electric properties:
Dipole moment                           ...  NO
Quadrupole moment                       ...  NO
Static polarizability                   ...  NO

Choice of electric origin               ... Center of mass
Position of electric origin             ...    -0.020864    -0.027760    -0.081997

General magnetic properties:
Magnetizability                         ...  NO

EPR properties:
g-Tensor (aka g-matrix)                 ...  NO
Zero-Field splitting spin-orbit         ...  NO
Zero-field splitting spin-spin          ...  NO
Hyperfine couplings                     ...  NO (   0 nuclei)
Quadrupole couplings                    ...  NO (   0 nuclei)
Contact density                         ...  NO (   0 nuclei)

NMR properties:
Chemical shifts                         ...  NO (   0 nuclei)
Spin-rotation constants                 ...  NO (   0 nuclei)
Spin-spin couplings                     ...  NO (   0 nuclei,    0 pairs)

Choice of magnetic origin               ... GIAO
Position of magnetic origin             ...     0.000000     0.000000     0.000000

Properties with geometric perturbations:
SCF Hessian                             ...  NO
IR spectrum                             ...  NO
VCD spectrum                            ...  NO
X-ray spectroscopy properties:
SCF XES/XAS/RIXS spectra                ...  NO

SCF SOC stabilization energy            ...  NO
Diagonal Born-Oppenheimer correction    ...  NO

-------------
DIPOLE MOMENT
-------------

Method             : SCF
Type of density    : Electron Density
Multiplicity       :   1
Irrep              :   0
Energy             :  -232.0830227168084434 Eh
Basis              : AO
                                X                 Y                 Z
Electronic contribution:     -1.936932663      -0.528771450      -0.297857977
Nuclear contribution   :      2.398055111       0.076277744       0.679310527
                        -----------------------------------------
Total Dipole Moment    :      0.461122447      -0.452493706       0.381452551
                        -----------------------------------------
Magnitude (a.u.)       :      0.750260297
Magnitude (Debye)      :      1.907010123



--------------------
Rotational spectrum 
--------------------
 
Rotational constants in cm-1:             0.167172             0.086319             0.058688 
Rotational constants in MHz :          5011.679418          2587.786675          1759.433033 

Dipole components along the rotational axes: 
x,y,z [a.u.] :    -0.513161    -0.427804     0.341379 
x,y,z [Debye]:    -1.304353    -1.087391     0.867716 

 

Dipole moment calculation done in   0.0 sec 

Maximum memory used throughout the entire PROP-calculation: 5.5 MB

--------------------------------
SUGGESTED CITATIONS FOR THIS RUN
--------------------------------

Below you find a list of papers that are relevant to this ORCA run
We neither can nor want to force you to cite these papers, but we appreciate if you do
You receive ORCA, which is the product of decades of hard work by many enthusiastic individuals, for free
The only thing we kindly ask in return is that you cite our papers,
We deeply appreciate it, if you show your appreciation for ORCA by not just citing the generic ORCA reference.

Please note that relegating all ORCA citations to the supporting information does *not* help us.
SI sections are not indexed - citations you put there will not count into any citation statistics
But we need these citations in order to attract the funding resources that allow us to do what we are doing

Therefore, if you are a happy ORCA user, please consider citing a few of the papers listed below in the main body of your paper

In addition to the list printed below, the program has created the file orca.bibtex that contains the list in bibtex format
You can import this file easily into all common literature databanks and citation aid programs


List of essential papers. We consider these as the minimum necessary citations

  1. Neese, F.
     Software update: the ORCA program system, version 6.0
     WIRES Comput. Molec. Sci. 2025 15(1), e70019
     doi.org/10.1002/wcms.7019

List of papers to cite with high priority. The work reported in these papers was absolutely
necessary for this run to complete.
Our perspective: the developers of density functionals and basis sets usually get cited in chemistry papers
Good! But without the algorithms to do something with them, the functionals or basis sets would not do anything.
Hence, in our opinion, the algorithm design and method developments papers are equally worthy of getting cited

  1. Neese, F.
     An improvement of the resolution of the identity approximation for the formation of the Coulomb matrix
     J. Comp. Chem. 2003 24(14), 1740-1747
     doi.org/10.1002/jcc.10318
  2. Neese, F.; Wennmohs, F.; Hansen, A.; Becker, U.
     Efficient, approximate and parallel Hartree-Fock and hybrid DFT calculations. A 'chain-of-spheres' algorithm for the Hartree-Fock exchange
     Chem. Phys. 2009 356(1-3), 98-109
     doi.org/10.1016/j.chemphys.2008.10.036
  3. Grimme, S.; Antony, J.; Ehrlich, S.; Krieg, H.
     A consistent and accurate ab initio parametrization of density functional dispersion correction (DFT-D) for the 94 elements H-Pu
     J. Chem. Phys. 2010 132 , 154104
     doi.org/10.1063/1.3382344
  4. Grimme, S.; Ehrlich, S.; Goerigk, L.
     Effect of the damping function in dispersion corrected density functional theory
     J. Comput. Chem. 2011 32(7), 1456-1465
     doi.org/10.1002/jcc.21759
  5. Helmich-Paris, B.; de Souza, B.; Neese, F.; Izsák, R.
     An improved chain of spheres for exchange algorithm
     J. Chem. Phys. 2021 155(10), 104109
     doi.org/10.1063/5.0058766
  6. Neese, F.
     The SHARK Integral Generation and Digestion System
     J. Comp. Chem. 2022 44(3), 381
     doi.org/10.1002/jcc.26942

List of suggested additional citations. These are papers that are important in the 'surrounding' of 
of this run, or papers that preceded the highly important papers. If you like your results we are grateful for a citation.

  1. Izsak, R.; Neese, F.
     An overlap fitted chain of spheres exchange method
     J. Chem. Phys. 2011 135 , 144105
     doi.org/10.1063/1.3646921
  2. Izsak, R.; Hansen, A.; Neese, F.
     The resolution of identity and chain of spheres approximations for the LPNO-CCSD singles Fock term
     Molec. Phys. 2012 110 , 2413-2417
     doi.org/10.1080/00268976.2012.687466
  3. Neese, F.
     The ORCA program system
     WIRES Comput. Molec. Sci. 2012 2(1), 73-78
     doi.org/10.1002/wcms.81
  4. Izsak, R.; Neese, F.; Klopper, W.
     Robust fitting techniques in the chain of spheres approximation to the Fock exchange: The role of the complementary space
     J. Chem. Phys. 2013 139 , 
     doi.org/10.1063/1.4819264
  5. Neese, F.
     Software update: the ORCA program system, version 4.0
     WIRES Comput. Molec. Sci. 2018 8(1), 1-6
     doi.org/10.1002/wcms.1327
  6. Neese, F.; Wennmohs, F.; Becker, U.; Riplinger, C.
     The ORCA quantum chemistry program package
     J. Chem. Phys. 2020 152(22), 224108
     doi.org/10.1063/5.0004608
  7. Neese, F.
     Software update: The ORCA program system—Version 5.0
     WIRES Comput. Molec. Sci. 2022 12(1), e1606
     doi.org/10.1002/wcms.1606

List of optional additional citations

  1. Neese, F.
     Approximate second-order SCF convergence for spin unrestricted wavefunctions
     Chem. Phys. Lett. 2000 325(1-3), 93-98
     doi.org/10.1016/s0009-2614(00)00662-x

Timings for individual modules:

Sum of individual times          ...       11.882 sec (=   0.198 min)
Startup calculation              ...        1.149 sec (=   0.019 min)   9.7 %
SCF iterations                   ...        6.514 sec (=   0.109 min)  54.8 %
Property calculations            ...        0.439 sec (=   0.007 min)   3.7 %
SCF Gradient evaluation          ...        3.780 sec (=   0.063 min)  31.8 %
                             ****ORCA TERMINATED NORMALLY****
TOTAL RUN TIME: 0 days 0 hours 0 minutes 12 seconds 446 msec
