
                                 *****************
                                 * O   R   C   A *
                                 *****************

                                            #,                                       
                                            ###                                      
                                            ####                                     
                                            #####                                    
                                            ######                                   
                                           ########,                                 
                                     ,,################,,,,,                         
                               ,,#################################,,                 
                          ,,##########################################,,             
                       ,#########################################, ''#####,          
                    ,#############################################,,   '####,        
                  ,##################################################,,,,####,       
                ,###########''''           ''''###############################       
              ,#####''   ,,,,##########,,,,          '''####'''          '####       
            ,##' ,,,,###########################,,,                        '##       
           ' ,,###''''                  '''############,,,                           
         ,,##''                                '''############,,,,        ,,,,,,###''
      ,#''                                            '''#######################'''  
     '                                                          ''''####''''         
             ,#######,   #######,   ,#######,      ##                                
            ,#'     '#,  ##    ##  ,#'     '#,    #''#        ,####,    ,#,          
            ##       ##  ##   ,#'  ##            #'  '#       #'       ,# #          
            ##       ##  #######   ##           ,######,      #####,      #          
            '#,     ,#'  ##    ##  '#,     ,#' ,#      #,     #,   #      #          
             '#######'   ##     ##  '#######'  #'      '#     '####' #    #          



                #########################################################
                #                        -***-                          #
                #          Department of theory and spectroscopy        #
                #                                                       #
                #                      Frank Neese                      #
                #                                                       #
                #     Directorship, Architecture, Infrastructure        #
                #                    SHARK, DRIVERS                     #
                #        Core code/Algorithms in most modules           #
                #                                                       #
                #        Max Planck Institute fuer Kohlenforschung      #
                #                Kaiser Wilhelm Platz 1                 #
                #                 D-45470 Muelheim/Ruhr                 #
                #                      Germany                          #
                #                                                       #
                #                  All rights reserved                  #
                #                        -***-                          #
                #########################################################


                         Program Version 6.1.0  -  RELEASE   -
                                (GIT: $679e74b$)
                          ($2025-06-10 18:02:51 +0200$)


 With contributions from (in alphabetic order):
[Max-Planck-Institut fuer Kohlenforschung]                               
  Daniel Aravena         : Magnetic Suceptibility                        
  Michael Atanasov       : Ab Initio Ligand Field Theory (pilot matlab implementation)
  Alexander A. Auer      : GIAO ZORA, VPT2 properties, NMR spectrum      
  Ute Becker             : All parallelization in ORCA, NUMFREQ, NUMCALC 
  Giovanni Bistoni       : ED, misc. LED, open-shell LED, HFLD           
  Dmytro Bykov           : pre 5.0 version of the SCF Hessian            
  Marcos Casanova-Páez   : Triplet and SCS-CIS(D). UHF-(DLPNO)-IP/EA/STEOM-CCSD. UHF-CVS-IP/STEOM-CCSD   
  Vijay G. Chilkuri      : MRCI spin determinant printing, contributions to CSF-ICE 
  Pauline Colinet        : FMM embedding                                 
  Dipayan Datta          : RHF DLPNO-CCSD density                        
  Achintya Kumar Dutta   : EOM-CC, STEOM-CC                              
  Nicolas Foglia         : Exact transition moments, OPA infrastructure, MCD improvements    
  Dmitry Ganyushin       : Spin-Orbit,Spin-Spin,Magnetic field MRCI      
  Miquel Garcia-Rates    : C-PCM and meta-GGA Hessian, CCSD/C-PCM, Gaussian charge scheme 
  Tiago L. C. Gouveia    : GS-ROHF, GS-ROCIS                             
  Yang Guo               : DLPNO-NEVPT2, F12-NEVPT2, CIM, IAO-localization        
  Andreas Hansen         : Spin unrestricted coupled pair/coupled cluster methods 
  Ingolf Harden          : AUTO-CI MPn and infrastructure                
  Benjamin Helmich-Paris : MC-RPA, TRAH-(SCF,CASSCF), AVAS, COSX integrals, SCF dyn. polar., MC-PDFT, srDFT 
  Lee Huntington         : MR-EOM, pCC                                   
  Robert Izsak           : Overlap fitted RIJCOSX, COSX-SCS-MP3, EOM     
  Riya Kayal             : Wick's Theorem for AUTO-CI, AUTO-CI UHF-CCSDT 
  Emily Kempfer          : AUTO-CI RHF CISDT and CCSDT, approximate NEVPT4
  Christian Kollmar      : KDIIS, OOCD, Brueckner-CCSD(T), CCSD density, CASPT2, CASPT2-K, improved NEVPT2 
  Axel Koslowski         : Symmetry handling                             
  Simone Kossmann        : meta-GGA functionals, TD-DFT gradient, OOMP2, (MP2 Hessian; deprecated post 5.0) 
  Lucas Lang             : DCDCAS, Hyperfine gauge corrections, ICE-SOC+SSC
  Marvin Lechner         : AUTO-CI (C++ implementation), FIC-MRCC        
  Spencer Leger          : CASSCF response                               
  Dagmar Lenk            : GEPOL surface, SMD, ORCA-2-JSON               
  Dimitrios Liakos       : Extrapolation schemes; Compound Job, Property file
  Dimitrios Manganas     : Further ROCIS development; embedding schemes. LFT, Crystal Embedding 
  Dimitrios Pantazis     : SARC Basis sets                               
  Anastasios Papadopoulos: AUTO-CI, single reference methods and gradients 
  Taras Petrenko         : pre 6.0 DFT Hessian and TD-DFT gradient,  ECA, NRVS 
  Petra Pikulova         : Analytic Raman intensities                    
  Peter Pinski           : DLPNO-MP2, DLPNO-MP2 Gradient                 
  Shashank Vittal Rao    : ES-AILFT, MagRelax                            
  Christoph Reimann      : Effective Core Potentials                     
  Marius Retegan         : Local ZFS, SOC                                
  Christoph Riplinger    : Optimizer, TS searches, QM/MM, DLPNO-CCSD(T), (RO)-DLPNO pert. Triples 
  Michael Roemelt        : Original ROCIS implementation, recursive CI coupling coefficients
  Masaaki Saitow         : Open-shell DLPNO-CCSD energy and density      
  Barbara Sandhoefer     : DKH picture change effects                    
  Yorick L. A. Schmerwitz: GMF and freeze-and-release deltaSCF, NEB S-IDPP initial path                    
  Kantharuban Sivalingam : CASSCF convergence/infrastructure, NEVPT2, NEVPT3, NEVPT4(SD), FIC-MRCI and CEPA variants
  Bernardo de Souza      : ESD, SOC TD-DFT                               
  Georgi L. Stoychev     : AutoAux, RI-MP2 NMR, DLPNO-MP2 response, X2C  
  Van Anh Tran           : RI-MP2 g-tensors                              
  Willem Van den Heuvel  : Paramagnetic NMR                              
  Zikuan Wang            : NOTCH, Electric field optimization            
  Frank Wennmohs         : Technical directorship and infrastructure     
  Hang Xu                : AUTO-CI-Response properties                   
                                                                         
[FACCTs GmbH]                                                            
  Markus Bursch, Nicolas Foglia, Miquel Garcia-Rates, Ingolf Harden, Hagen Neugebauer, Anastasios Papadopoulos, 
  Christoph Riplinger, Bernardo de Souza, Georgi L. Stoychev                                                    
                                                                 
  APM, various basis sets, CI-OPT, improved COSX, DLPNO-Multilevel,           
  DOCKER, DRACO, updates on ESD, Fragmentator, GOAT, IRC, LR-CPCM, L-BFGS, MBIS, meta-GGA TD-DFT gradient, ML-optimized integration grids, 
  MM, NACMEs, nearIR, NEB, NEB-TS, NL-DFT gradient (VV10), 2- and 3-layer-ONIOM, interface openCOSMO-RS, QMMM,   
  Crystal-QMMM, RESP, rigid body optimization, SF, symmetry and pop. for TD-DFT, various functionals, SOLVATOR                                   
                                                                         
[Other institutions]                                                     
  V. Asgeirsson          : NEB                                           
  Christoph Bannwarth    : sTDA-DFT, sTD-DFT, PBEh-3c, B97-3c, D3        
  Giovanni Bistoni       : ETS/NOCV, ADLD/ADEX, COVALED                  
  Martin Brehm           : Molecular dynamics                            
  Ronald Cardenas        : ETS/NOCV                                      
  Martina Colucci        : COVALED                                       
  Sebastian Ehlert       : rSCAN, r2SCAN, r2SCAN-3c, D4, dhf basis sets  
  Marvin Friede          : D4 for Fr, Ra, Ac-Lr                          
  Lars Goerigk           : TD-DFT with DH, B97 family of functionals     
  Stefan Grimme          : VdW corrections, initial TS optimization, DFT functionals, gCP, sTDA/sTD-DF 
  Waldemar Hujo          : DFT-NL                                        
  H. Jonsson             : NEB                                           
  Holger Kruse           : gCP                                           
  Marcel Mueller         : wB97X-3c, vDZP basis set                      
  Hagen Neugebauer       : wr2SCAN, Native XTB                           
  Gianluca Regni         : ADLD/ADEX                                     
  Tobias Risthaus        : pre 6.0 range-separated hybrid DFT and stability analysis
  Lukas Wittmann         : regularized MP2, r2SCAN double-hybrids, wr2SCAN        
                                                                         
We gratefully acknowledge several colleagues who have allowed us to      
interface, adapt or use parts of their codes:                            
  Ed Valeev, F. Pavosevic, A. Kumar             : LibInt (2-el integral package), F12 methods 
  Garnet Chan, S. Sharma, J. Yang, R. Olivares  : DMRG                   
  Ulf Ekstrom                                   : XCFun DFT Library      
  Mihaly Kallay                                 : mrcc  (arbitrary order and MRCC methods)
  Frank Weinhold                                : gennbo (NPA and NBO analysis)           
  Simon Mueller                                 : openCOSMO-RS                            
  Christopher J. Cramer and Donald G. Truhlar   : smd solvation model                     
  S Lehtola, MJT Oliveira, MAL Marques          : LibXC Library                           
  Liviu Ungur et al                             : ANISO software                          


 Your calculation uses the libint2 library for the computation of 2-el integrals
 For citations please refer to: http://libint.valeyev.net

 Your ORCA version has been built with support for libXC version: 7.0.0
 For citations please refer to: https://libxc.gitlab.io

 This ORCA versions uses:
   CBLAS   interface :  Fast vector & matrix operations
   LAPACKE interface :  Fast linear algebra routines
   SCALAPACK package :  Parallel linear algebra routines
   Shared memory     :  Shared parallel matrices
   BLAS/LAPACK       :  OpenBLAS 0.3.29  USE64BITINT DYNAMIC_ARCH NO_AFFINITY Zen SINGLE_THREADED
        Core in use  :  Zen
   Copyright (c) 2011-2014, The OpenBLAS Project


  ***********************************
  * Starting time: Wed Sep 10 13:34:09 2025
  * Host name:     wyk-Server
  * Process ID:    2280376
  * Working dir.:  /home/wyk/Documents/code/openQDC/MGMR/singlepointcalc/34/react
  ***********************************

Your calculation utilizes the atom-pairwise dispersion correction
with the Becke-Johnson damping scheme (D3BJ)


Warning: RI is on but no J-basis has been assigned. Assigning Def2/J (nothing to worry about!)
================================================================================

----- Orbital basis set information -----
Your calculation utilizes the basis: def2-SVP
   F. Weigend and R. Ahlrichs, Phys. Chem. Chem. Phys. 7, 3297 (2005).

----- AuxJ basis set information -----
Your calculation utilizes the auxiliary basis: def2/J
   H-Rn: F. Weigend, Phys. Chem. Chem. Phys. 8, 1057 (2006).
   Fr-Lr: K. Eichkorn, F. Weigend, O. Treutler, R. Ahlrichs; Theor. Chem. Acc. 97, 119 (1997).

================================================================================
                                        WARNINGS
                       Please study these warnings very carefully!
================================================================================


================================================================================
                                       INPUT FILE
================================================================================
NAME = orca.inp
|  1> ! B3LYP def2-SVP d3 EnGrad 
|  2> %pal nprocs 6 end 
|  3> *xyz 0 1 
|  4> C   1.0175141244493 -0.65421322672724 0.03558046501072
|  5> O   0.81221450687209 -0.10883321565996 -1.01992779185385
|  6> N   -2.03338209600128 0.12500615061095 0.1473242533105
|  7> H   -2.40811143167995 1.04347421039877 0.39274383473752
|  8> H   2.02711125534512 -1.06427772208828 0.29572561832012
|  9> H   0.20789875566169 -0.77240868223693 0.79371842366564
| 10> H   -2.81140493336187 -0.386146768392 -0.27436663381333
| 11> H   -1.3590271812851 0.2878162540947 -0.60655816937731
| 12> *
| 13> 
| 14>                          ****END OF INPUT****
================================================================================

                     *******************************
                     * Energy+Gradient Calculation *
                     *******************************

---------------------------------
CARTESIAN COORDINATES (ANGSTROEM)
---------------------------------
  C      1.017514   -0.654213    0.035580
  O      0.812215   -0.108833   -1.019928
  N     -2.033382    0.125006    0.147324
  H     -2.408111    1.043474    0.392744
  H      2.027111   -1.064278    0.295726
  H      0.207899   -0.772409    0.793718
  H     -2.811405   -0.386147   -0.274367
  H     -1.359027    0.287816   -0.606558

----------------------------
CARTESIAN COORDINATES (A.U.)
----------------------------
  NO LB      ZA    FRAG     MASS         X           Y           Z
   0 C     6.0000    0    12.011    1.922823   -1.236284    0.067237
   1 O     8.0000    0    15.999    1.534863   -0.205665   -1.927384
   2 N     7.0000    0    14.007   -3.842535    0.236227    0.278402
   3 H     1.0000    0     1.008   -4.550671    1.971880    0.742178
   4 H     1.0000    0     1.008    3.830685   -2.011193    0.558840
   5 H     1.0000    0     1.008    0.392872   -1.459641    1.499910
   6 H     1.0000    0     1.008   -5.312785   -0.729712   -0.518478
   7 H     1.0000    0     1.008   -2.568189    0.543894   -1.146229

--------------------------------
INTERNAL COORDINATES (ANGSTROEM)
--------------------------------
 C      0   0   0     0.000000000000     0.00000000     0.00000000
 O      1   0   0     1.205688587388     0.00000000     0.00000000
 N      2   1   0     3.084570993257    81.95762321     0.00000000
 H      3   2   1     1.021878868955   119.82259020   112.47061831
 H      1   2   3     1.120319042889   121.48648085   179.23805767
 H      1   2   3     1.115446267390   121.28889654   359.32053901
 H      3   2   1     1.021968711039   120.54770541   246.81497320
 H      3   2   1     1.024500067367    29.11505390   180.31284916

---------------------------
INTERNAL COORDINATES (A.U.)
---------------------------
 C      0   0   0     0.000000000000     0.00000000     0.00000000
 O      1   0   0     2.278421232958     0.00000000     0.00000000
 N      2   1   0     5.828994417893    81.95762321     0.00000000
 H      3   2   1     1.931071204366   119.82259020   112.47061831
 H      1   2   3     2.117096173676   121.48648085   179.23805767
 H      1   2   3     2.107887962471   121.28889654   359.32053901
 H      3   2   1     1.931240981301   120.54770541   246.81497320
 H      3   2   1     1.936024551508    29.11505390   180.31284916

---------------------
BASIS SET INFORMATION
---------------------
There are 4 groups of distinct atoms

 Group   1 Type C   : 7s4p1d contracted to 3s2p1d pattern {511/31/1}
 Group   2 Type O   : 7s4p1d contracted to 3s2p1d pattern {511/31/1}
 Group   3 Type N   : 7s4p1d contracted to 3s2p1d pattern {511/31/1}
 Group   4 Type H   : 4s1p contracted to 2s1p pattern {31/1}

Atom   0C    basis set group =>   1
Atom   1O    basis set group =>   2
Atom   2N    basis set group =>   3
Atom   3H    basis set group =>   4
Atom   4H    basis set group =>   4
Atom   5H    basis set group =>   4
Atom   6H    basis set group =>   4
Atom   7H    basis set group =>   4
---------------------------------
AUXILIARY/J BASIS SET INFORMATION
---------------------------------
There are 4 groups of distinct atoms

 Group   1 Type C   : 12s5p4d2f1g contracted to 6s4p3d1f1g pattern {711111/2111/211/2/1}
 Group   2 Type O   : 12s5p4d2f1g contracted to 6s4p3d1f1g pattern {711111/2111/211/2/1}
 Group   3 Type N   : 12s5p4d2f1g contracted to 6s4p3d1f1g pattern {711111/2111/211/2/1}
 Group   4 Type H   : 5s2p1d contracted to 3s1p1d pattern {311/2/1}

Atom   0C    basis set group =>   1
Atom   1O    basis set group =>   2
Atom   2N    basis set group =>   3
Atom   3H    basis set group =>   4
Atom   4H    basis set group =>   4
Atom   5H    basis set group =>   4
Atom   6H    basis set group =>   4
Atom   7H    basis set group =>   4


           ************************************************************
           *        Program running with 6 parallel MPI-processes     *
           *              working on a common directory               *
           ************************************************************
------------------------------------------------------------------------------
                             ORCA STARTUP CALCULATIONS
                           -- RI-GTO INTEGRALS CHOSEN --
------------------------------------------------------------------------------
------------------------------------------------------------------------------
                   ___                                                        
                  /   \      - P O W E R E D   B Y -                         
                 /     \                                                     
                 |  |  |   _    _      __       _____    __    __             
                 |  |  |  | |  | |    /  \     |  _  \  |  |  /  |          
                  \  \/   | |  | |   /    \    | | | |  |  | /  /          
                 / \  \   | |__| |  /  /\  \   | |_| |  |  |/  /          
                |  |  |   |  __  | /  /__\  \  |    /   |      \           
                |  |  |   | |  | | |   __   |  |    \   |  |\   \          
                \     /   | |  | | |  |  |  |  | |\  \  |  | \   \       
                 \___/    |_|  |_| |__|  |__|  |_| \__\ |__|  \__/        
                                                                              
                      - O R C A' S   B I G   F R I E N D -                    
                                      &                                       
                       - I N T E G R A L  F E E D E R -                       
                                                                              
 v1 FN, 2020, v2 2021, v3 2022-2024                                           
------------------------------------------------------------------------------


----------------------
SHARK INTEGRAL PACKAGE
----------------------

Number of atoms                             ...      8
Number of basis functions                   ...     67
Number of shells                            ...     33
Maximum angular momentum                    ...      2
Integral batch strategy                     ... SHARK/LIBINT Hybrid
RI-J (if used) integral strategy            ... SPLIT-RIJ (Revised 2003 algorithm where possible)
Printlevel                                  ...      1
Contraction scheme used                     ... SEGMENTED contraction
Prescreening option                         ... SCHWARTZ
   Thresh                                   ... 2.500e-11
   Tcut                                     ... 2.500e-12
   Tpresel                                  ... 2.500e-12 
Coulomb Range Separation                    ... NOT USED
Exchange Range Separation                   ... NOT USED
Multipole approximations                    ... NOT USED
Finite Nucleus Model                        ... NOT USED
CABS basis                                  ... NOT available
Auxiliary Coulomb fitting basis             ... AVAILABLE
   # of basis functions in Aux-J            ...    202
   # of shells in Aux-J                     ...     70
   Maximum angular momentum in Aux-J        ...      4
Auxiliary J/K fitting basis                 ... NOT available
Auxiliary Correlation fitting basis         ... NOT available
Auxiliary 'external' fitting basis          ... NOT available

Checking pre-screening integrals            ... done (  0.0 sec) Dimension = 33
   => SHARK Basis and OBASIS are compatible. Storing Pre-screening
Shell pair information
Shell pair cut-off parameter TPreSel        ...   2.5e-12
Total number of shell pairs                 ...       561
Shell pairs after pre-screening             ...       548
Total number of primitive shell pairs       ...      1945
Primitive shell pairs kept                  ...      1541
          la=0 lb=0:    187 shell pairs
          la=1 lb=0:    203 shell pairs
          la=1 lb=1:     64 shell pairs
          la=2 lb=0:     55 shell pairs
          la=2 lb=1:     33 shell pairs
          la=2 lb=2:      6 shell pairs

Checking whether 4 symmetric matrices of dimension 67 fit in memory
:Max Core in MB      =   4096.00
 MB in use           =      3.92
 MB left             =   4092.08
 MB needed           =      0.07
 Data fit in memory  = YES
Calculating RI/J V-Matrix + Cholesky decomp.... done (  0.0 sec)
Calculating Nuclear repulsion               ... done (  0.0 sec) ENN=     69.994726011652 Eh

Diagonalization of the overlap matrix:
Smallest eigenvalue                        ... 1.788e-02
Time for diagonalization                   ...    0.001 sec
Threshold for overlap eigenvalues          ... 1.000e-07
Number of eigenvalues below threshold      ... 0
Time for construction of square roots      ...    0.000 sec
Total time needed                          ...    0.002 sec

-------------------
DFT GRID GENERATION
-------------------

General Integration Accuracy     IntAcc      ... 4.388
Radial Grid Type                 RadialGrid  ... OptM3 with GC (2021)
Angular Grid (max. ang.)         AngularGrid ... 4 (Lebedev-302)
Angular grid pruning method      GridPruning ... 4 (adaptive)
Weight generation scheme         WeightScheme... mBecke (2022)
Basis function cutoff            BFCut       ... 1.0000e-11
Integration weight cutoff        WCut        ... 1.0000e-14
Partially contracted basis set               ... off
Rotationally invariant grid construction     ... off
Angular grids for H and He will be reduced by one unit

Total number of grid points                  ...    34732
Total number of batches                      ...      547
Average number of points per batch           ...       63
Average number of grid points per atom       ...     4342

--------------------
COSX GRID GENERATION
--------------------

GRIDX 1
-------
General Integration Accuracy     IntAcc      ... 3.816
Radial Grid Type                 RadialGrid  ... OptM3 with GC (2021)
Angular Grid (max. ang.)         AngularGrid ... 1 (Lebedev-50)
Angular grid pruning method      GridPruning ... 4 (adaptive)
Weight generation scheme         WeightScheme... mBecke (2022)
Basis function cutoff            BFCut       ... 1.0000e-11
Integration weight cutoff        WCut        ... 1.0000e-14
Partially contracted basis set               ... on
Rotationally invariant grid construction     ... off
Angular grids for H and He will be reduced by one unit

Total number of grid points                  ...     4492
Total number of batches                      ...       41
Average number of points per batch           ...      109
Average number of grid points per atom       ...      562
UseSFitting                                  ... on

GRIDX 2
-------
General Integration Accuracy     IntAcc      ... 4.020
Radial Grid Type                 RadialGrid  ... OptM3 with GC (2021)
Angular Grid (max. ang.)         AngularGrid ... 2 (Lebedev-110)
Angular grid pruning method      GridPruning ... 4 (adaptive)
Weight generation scheme         WeightScheme... mBecke (2022)
Basis function cutoff            BFCut       ... 1.0000e-11
Integration weight cutoff        WCut        ... 1.0000e-14
Partially contracted basis set               ... on
Rotationally invariant grid construction     ... off
Angular grids for H and He will be reduced by one unit

Total number of grid points                  ...     9534
Total number of batches                      ...       78
Average number of points per batch           ...      122
Average number of grid points per atom       ...     1192
UseSFitting                                  ... on

GRIDX 3
-------
General Integration Accuracy     IntAcc      ... 4.338
Radial Grid Type                 RadialGrid  ... OptM3 with GC (2021)
Angular Grid (max. ang.)         AngularGrid ... 3 (Lebedev-194)
Angular grid pruning method      GridPruning ... 4 (adaptive)
Weight generation scheme         WeightScheme... mBecke (2022)
Basis function cutoff            BFCut       ... 1.0000e-11
Integration weight cutoff        WCut        ... 1.0000e-14
Partially contracted basis set               ... on
Rotationally invariant grid construction     ... off
Angular grids for H and He will be reduced by one unit

Total number of grid points                  ...    21062
Total number of batches                      ...      169
Average number of points per batch           ...      124
Average number of grid points per atom       ...     2633
UseSFitting                                  ... on
Grids setup in   0.4 sec
Initializing property integral containers    ... done (  0.0 sec)

SHARK setup successfully completed in   0.4 seconds

Maximum memory used throughout the entire STARTUP-calculation: 11.4 MB


           ************************************************************
           *        Program running with 6 parallel MPI-processes     *
           *              working on a common directory               *
           ************************************************************
-------------------------------------------------------------------------------
                                 ORCA GUESS
                   Start orbitals & Density for SCF / CASSCF
-------------------------------------------------------------------------------

------------
SCF SETTINGS
------------
Hamiltonian:
 Density Functional     Method          .... DFT(GTOs)
 Exchange Functional    Exchange        .... B88
   X-Alpha parameter    XAlpha          ....  0.666667
   Becke's b parameter  XBeta           ....  0.004200
 Correlation Functional Correlation     .... LYP
 LDA part of GGA corr.  LDAOpt          .... VWN-5
 Gradients option       PostSCFGGA      .... off
 Hybrid DFT is turned on
   Fraction HF Exchange ScalHFX         ....  0.200000
   Scaling of DF-GGA-X  ScalDFX         ....  0.720000
   Scaling of DF-GGA-C  ScalDFC         ....  0.810000
   Scaling of DF-LDA-C  ScalLDAC        ....  1.000000
   Perturbative correction              ....  0.000000
   NL short-range parameter             ....  4.800000
 RI-approximation to the Coulomb term is turned on
   Number of AuxJ basis functions       .... 202
   RIJ-COSX (HFX calculated with COS-X)).... on


General Settings:
 Integral files         IntName         .... orca
 Hartree-Fock type      HFTyp           .... RHF
 Total Charge           Charge          ....    0
 Multiplicity           Mult            ....    1
 Number of Electrons    NEL             ....   26
 Basis Dimension        Dim             ....   67
 Nuclear Repulsion      ENuc            ....     69.9947260117 Eh

Convergence Acceleration:
 AO-DIIS                CNVDIIS         .... on
   Start iteration      DIISMaxIt       ....    12
   Startup error        DIISStart       ....  0.200000
   # of expansion vecs  DIISMaxEq       ....     5
   Bias factor          DIISBfac        ....   1.050
   Max. coefficient     DIISMaxC        ....  10.000
 MO-DIIS                CNVKDIIS        .... off
 Trust-Rad. Augm. Hess. CNVTRAH         .... auto
   Auto Start mean grad. ratio tolernc. ....  1.125000
   Auto Start start iteration           ....    50
   Auto Start num. interpolation iter.  ....    10
   Max. Number of Micro iterations      ....    24
   Max. Number of Macro iterations      .... Maxiter - #DIIS iter
   Number of Davidson start vectors     ....     2
   Converg. threshold    (grad. norm)   ....   1.000e-05
   Grad. Scal. Fac. for Micro threshold ....   0.100
   Minimum threshold for Micro iter.    ....   1.000e-02
   NR start threshold (gradient norm)   ....   1.000e-04
   Initial trust radius                 ....   0.400
   Minimum AH scaling param. (alpha)    ....   1.000
   Maximum AH scaling param. (alpha)    .... 1000.000
   Quad. conv. algorithm                .... NR
   White noise on init. David. guess    .... on
   Maximum white noise                  ....   0.010
   Pseudo random numbers                .... off
   Inactive MOs                         .... canonical
   Orbital update algorithm             .... Taylor
   Preconditioner                       .... Diag
   Full preconditioner red. dimension   ....   250
 SOSCF                 CNVSOSCF           .... on
   Start iteration     SOSCFMaxIt         ....   150
   Startup grad/error  SOSCFStart         ....  0.003300
   Hessian update      SOSCFHessUp        .... L-BFGS
   Autom. constraints  SOSCFAutoConstrain .... off
 Level Shifting         CNVShift        .... on
   Level shift para.    LevelShift      ....    0.2500
   Turn off err/grad.   ShiftErr        ....    0.0010
 Zerner damping         CNVZerner       .... off
 Static damping         CNVDamp         .... on
   Fraction old density DampFac         ....    0.7000
   Max. Damping (<1)    DampMax         ....    0.9800
   Min. Damping (>=0)   DampMin         ....    0.0000
   Turn off err/grad.   DampErr         ....    0.1000

SCF Procedure:
 Maximum # iterations   MaxIter         ....   125
 SCF integral mode      SCFMode         .... Direct
   Integral package                     .... SHARK and LIBINT hybrid scheme
 Reset frequency        DirectResetFreq ....    20
 Integral Threshold     Thresh          ....  2.500e-11 Eh
 Primitive CutOff       TCut            ....  2.500e-12 Eh

Convergence Tolerance:
 Convergence Check Mode ConvCheckMode   .... Total+1el-Energy
 Convergence forced     ConvForced      .... 0
 Energy Change          TolE            ....  1.000e-08 Eh
 1-El. energy change                    ....  1.000e-05 Eh
 Orbital Gradient       TolG            ....  1.000e-05
 Orbital Rotation angle TolX            ....  1.000e-05
 DIIS Error             TolErr          ....  5.000e-07

------------------------------
INITIAL GUESS: MODEL POTENTIAL
------------------------------
Loading Hartree-Fock densities                     ... done
Calculating cut-offs                               ... done
Initializing the effective Hamiltonian             ... done
Setting up the integral package (SHARK)            ... done
Starting the Coulomb interaction                   ... done (   0.0 sec)
Making the grid                                    ... done (   0.1 sec)
Mapping shells                                     ... done
Starting the XC term evaluation                    ... done (   0.0 sec)
  promolecular density results
     # of electrons  =     25.998680718
     EX              =    -21.327902495
     EC              =     -0.853468689
     EX+EC           =    -22.181371184
Transforming the Hamiltonian                       ... done (   0.0 sec)
Diagonalizing the Hamiltonian                      ... done (   0.0 sec)
Back transforming the eigenvectors                 ... done (   0.0 sec)
Now organizing SCF variables                       ... done
                      ------------------
                      INITIAL GUESS DONE (   0.1 sec)
                      ------------------
             **** ENERGY FILE WAS UPDATED (orca.en.tmp) ****
Finished Guess after   0.2 sec
Maximum memory used throughout the entire GUESS-calculation: 6.2 MB


           ************************************************************
           *        Program running with 6 parallel MPI-processes     *
           *              working on a common directory               *
           ************************************************************

-------------------------------------------------------------------------------------------
                                      ORCA LEAN-SCF
                              memory conserving SCF solver
-------------------------------------------------------------------------------------------

----------------------------------------D-I-I-S--------------------------------------------
Iteration    Energy (Eh)           Delta-E    RMSDP     MaxDP     DIISErr   Damp  Time(sec)
-------------------------------------------------------------------------------------------
               ***  Starting incremental Fock matrix formation  ***
    1    -170.6584278923074862     0.00e+00  1.68e-02  1.04e-01  2.92e-01  0.700   0.2
    2    -170.7485729864152972    -9.01e-02  1.04e-02  5.57e-02  1.31e-01  0.700   0.1
                               ***Turning on AO-DIIS***
    3    -170.7768797149423108    -2.83e-02  3.53e-03  1.66e-02  3.60e-02  0.700   0.1
    4    -170.7951356263382081    -1.83e-02  4.70e-03  2.44e-02  1.55e-02  0.000   0.1
    5    -170.8374991457214378    -4.24e-02  1.60e-03  7.02e-03  1.13e-02  0.000   0.1
                              *** Initializing SOSCF ***
---------------------------------------S-O-S-C-F--------------------------------------
Iteration    Energy (Eh)           Delta-E    RMSDP     MaxDP     MaxGrad    Time(sec)
--------------------------------------------------------------------------------------
    6    -170.8378078785152070    -3.09e-04  5.23e-04  2.42e-03  2.29e-03     0.1
               *** Restarting incremental Fock matrix formation ***
    7    -170.8378334268533649    -2.55e-05  3.63e-04  1.62e-03  3.31e-04     0.2
    8    -170.8378345569863086    -1.13e-06  7.48e-05  5.67e-04  2.71e-04     0.1
    9    -170.8378352965810905    -7.40e-07  5.07e-05  2.79e-04  9.23e-05     0.1
   10    -170.8378352893067813     7.27e-09  2.24e-05  1.78e-04  1.32e-04     0.2
                 **** Energy Check signals convergence ****

               *****************************************************
               *                     SUCCESS                       *
               *           SCF CONVERGED AFTER  10 CYCLES          *
               *****************************************************

Recomputing exchange energy using gridx3       ... done (    0.205 sec)
Old exchange energy                            :     -4.340242008 Eh
New exchange energy                            :     -4.340265078 Eh
Exchange energy change after final integration :     -0.000023070 Eh
Total energy after final integration           :   -170.837858441 Eh
             **** ENERGY FILE WAS UPDATED (orca.en.tmp) ****

----------------
TOTAL SCF ENERGY
----------------

Total Energy       :       -170.83785844129676 Eh           -4648.73447 eV

Components:
Nuclear Repulsion  :         69.99472601165159 Eh            1904.65333 eV
Electronic Energy  :       -240.83256138298023 Eh           -6553.38716 eV
One Electron Energy:       -370.68118071682073 Eh          -10086.74773 eV
Two Electron Energy:        129.84861933384050 Eh            3533.36056 eV

Virial components:
Potential Energy   :       -340.18780700090127 Eh           -9256.98084 eV
Kinetic Energy     :        169.34994855960451 Eh            4608.24638 eV
Virial Ratio       :          2.00878600728461

DFT components:
N(Alpha)           :       12.999997563282 electrons
N(Beta)            :       12.999997563282 electrons
N(Total)           :       25.999995126565 electrons
E(X)               :      -17.264108046104 Eh       
E(C)               :       -1.018732167485 Eh       
E(XC)              :      -18.282840213589 Eh       

---------------
SCF CONVERGENCE
---------------

  Last Energy change         ...   -7.2743e-09  Tolerance :   1.0000e-08
  Last MAX-Density change    ...    1.7842e-04  Tolerance :   1.0000e-07
  Last RMS-Density change    ...    2.2381e-05  Tolerance :   5.0000e-09
  Last DIIS Error            ...    2.2946e-03  Tolerance :   5.0000e-07
  Last Orbital Gradient      ...    1.3200e-04  Tolerance :   1.0000e-05
  Last Orbital Rotation      ...    1.4580e-04  Tolerance :   1.0000e-05


----------------
ORBITAL ENERGIES
----------------

  NO   OCC          E(Eh)            E(eV) 
   0   2.0000     -19.148229      -521.0498 
   1   2.0000     -14.294183      -388.9645 
   2   2.0000     -10.277658      -279.6693 
   3   2.0000      -1.044630       -28.4258 
   4   2.0000      -0.825270       -22.4567 
   5   2.0000      -0.613944       -16.7063 
   6   2.0000      -0.492193       -13.3932 
   7   2.0000      -0.449385       -12.2284 
   8   2.0000      -0.444268       -12.0892 
   9   2.0000      -0.431038       -11.7291 
  10   2.0000      -0.397821       -10.8253 
  11   2.0000      -0.270379        -7.3574 
  12   2.0000      -0.245854        -6.6900 
  13   0.0000      -0.038935        -1.0595 
  14   0.0000       0.062573         1.7027 
  15   0.0000       0.092176         2.5082 
  16   0.0000       0.142507         3.8778 
  17   0.0000       0.163551         4.4505 
  18   0.0000       0.173643         4.7251 
  19   0.0000       0.238103         6.4791 
  20   0.0000       0.441075        12.0023 
  21   0.0000       0.450148        12.2491 
  22   0.0000       0.531977        14.4758 
  23   0.0000       0.536660        14.6033 
*Only the first 10 virtual orbitals were printed.

                    ********************************
                    * MULLIKEN POPULATION ANALYSIS *
                    ********************************

-----------------------
MULLIKEN ATOMIC CHARGES
-----------------------
   0 C :    0.162783
   1 O :   -0.226462
   2 N :   -0.249190
   3 H :    0.080929
   4 H :    0.019280
   5 H :    0.040922
   6 H :    0.081089
   7 H :    0.090649
Sum of atomic charges:    0.0000000

--------------------------------
MULLIKEN REDUCED ORBITAL CHARGES
--------------------------------
  0 C s       :     3.175370  s :     3.175370
      pz      :     0.870596  p :     2.586501
      px      :     0.962432
      py      :     0.753472
      dz2     :     0.020676  d :     0.075347
      dxz     :     0.027420
      dyz     :     0.013059
      dx2y2   :     0.005552
      dxy     :     0.008640

  1 O s       :     3.796342  s :     3.796342
      pz      :     1.363484  p :     4.411713
      px      :     1.762401
      py      :     1.285827
      dz2     :     0.006429  d :     0.018407
      dxz     :     0.003715
      dyz     :     0.005800
      dx2y2   :     0.001457
      dxy     :     0.001006

  2 N s       :     3.425204  s :     3.425204
      pz      :     1.441481  p :     3.807606
      px      :     1.171415
      py      :     1.194710
      dz2     :     0.002940  d :     0.016380
      dxz     :     0.005604
      dyz     :     0.001429
      dx2y2   :     0.002669
      dxy     :     0.003738

  3 H s       :     0.872744  s :     0.872744
      pz      :     0.014452  p :     0.046327
      px      :     0.011556
      py      :     0.020319

  4 H s       :     0.961622  s :     0.961622
      pz      :     0.002568  p :     0.019098
      px      :     0.012963
      py      :     0.003567

  5 H s       :     0.937950  s :     0.937950
      pz      :     0.007284  p :     0.021127
      px      :     0.011794
      py      :     0.002050

  6 H s       :     0.872615  s :     0.872615
      pz      :     0.013381  p :     0.046295
      px      :     0.017217
      py      :     0.015697

  7 H s       :     0.861763  s :     0.861763
      pz      :     0.017364  p :     0.047588
      px      :     0.020170
      py      :     0.010054



                     *******************************
                     * LOEWDIN POPULATION ANALYSIS *
                     *******************************

----------------------
LOEWDIN ATOMIC CHARGES
----------------------
   0 C :    0.140788
   1 O :   -0.125573
   2 N :   -0.155981
   3 H :    0.054069
   4 H :   -0.009708
   5 H :   -0.006297
   6 H :    0.054155
   7 H :    0.048546

-------------------------------
LOEWDIN REDUCED ORBITAL CHARGES
-------------------------------
  0 C s       :     2.929729  s :     2.929729
      pz      :     0.951322  p :     2.753026
      px      :     1.028398
      py      :     0.773306
      dz2     :     0.046642  d :     0.176457
      dxz     :     0.067492
      dyz     :     0.029461
      dx2y2   :     0.011062
      dxy     :     0.021799

  1 O s       :     3.559510  s :     3.559510
      pz      :     1.471718  p :     4.535013
      px      :     1.758415
      py      :     1.304880
      dz2     :     0.011025  d :     0.031050
      dxz     :     0.006038
      dyz     :     0.010340
      dx2y2   :     0.001887
      dxy     :     0.001760

  2 N s       :     3.153749  s :     3.153749
      pz      :     1.476041  p :     3.967811
      px      :     1.230789
      py      :     1.260980
      dz2     :     0.004588  d :     0.034422
      dxz     :     0.011734
      dyz     :     0.002754
      dx2y2   :     0.006302
      dxy     :     0.009044

  3 H s       :     0.829254  s :     0.829254
      pz      :     0.034071  p :     0.116677
      px      :     0.026942
      py      :     0.055663

  4 H s       :     0.946153  s :     0.946153
      pz      :     0.009577  p :     0.063555
      px      :     0.041569
      py      :     0.012409

  5 H s       :     0.936209  s :     0.936209
      pz      :     0.026207  p :     0.070088
      px      :     0.036187
      py      :     0.007694

  6 H s       :     0.829200  s :     0.829200
      pz      :     0.037844  p :     0.116646
      px      :     0.045051
      py      :     0.033751

  7 H s       :     0.827098  s :     0.827098
      pz      :     0.054850  p :     0.124356
      px      :     0.045945
      py      :     0.023561



                      *****************************
                      * MAYER POPULATION ANALYSIS *
                      *****************************

  NA   - Mulliken gross atomic population
  ZA   - Total nuclear charge
  QA   - Mulliken gross atomic charge
  VA   - Mayer's total valence
  BVA  - Mayer's bonded valence
  FA   - Mayer's free valence

  ATOM       NA         ZA         QA         VA         BVA        FA
  0 C      5.8372     6.0000     0.1628     3.9049     3.9049    -0.0000
  1 O      8.2265     8.0000    -0.2265     2.2265     2.2265     0.0000
  2 N      7.2492     7.0000    -0.2492     3.0296     3.0296    -0.0000
  3 H      0.9191     1.0000     0.0809     0.9989     0.9989     0.0000
  4 H      0.9807     1.0000     0.0193     0.9543     0.9543    -0.0000
  5 H      0.9591     1.0000     0.0409     1.0079     1.0079    -0.0000
  6 H      0.9189     1.0000     0.0811     0.9988     0.9988    -0.0000
  7 H      0.9094     1.0000     0.0906     1.0336     1.0336     0.0000

  Mayer bond orders larger than 0.100000
B(  0-C ,  1-O ) :   2.0859 B(  0-C ,  4-H ) :   0.9147 B(  0-C ,  5-H ) :   0.9053 
B(  2-N ,  3-H ) :   0.9940 B(  2-N ,  6-H ) :   0.9938 B(  2-N ,  7-H ) :   0.9624 


-------
TIMINGS
-------

Total SCF time: 0 days 0 hours 0 min 1 sec 

Total time                  ....       1.972 sec
Sum of individual times     ....       1.792 sec  ( 90.8%)

SCF preparation             ....       0.153 sec  (  7.8%)
Fock matrix formation       ....       1.529 sec  ( 77.5%)
  Startup                   ....       0.003 sec  (  0.2% of F)
  Split-RI-J                ....       0.102 sec  (  6.7% of F)
  Chain of spheres X        ....       1.106 sec  ( 72.4% of F)
  XC integration            ....       0.401 sec  ( 26.2% of F)
    XC Preparation          ....       0.000 sec  (  0.0% of XC)
    Basis function eval.    ....       0.091 sec  ( 22.7% of XC)
    Density eval.           ....       0.038 sec  (  9.5% of XC)
    XC-Functional eval.     ....       0.031 sec  (  7.7% of XC)
    XC-Potential eval.      ....       0.041 sec  ( 10.2% of XC)
Diagonalization             ....       0.000 sec  (  0.0%)
Density matrix formation    ....       0.014 sec  (  0.7%)
Total Energy calculation    ....       0.009 sec  (  0.5%)
Population analysis         ....       0.012 sec  (  0.6%)
Orbital Transformation      ....       0.008 sec  (  0.4%)
Orbital Orthonormalization  ....       0.000 sec  (  0.0%)
DIIS solution               ....       0.043 sec  (  2.2%)
SOSCF solution              ....       0.023 sec  (  1.1%)
Finished LeanSCF after   2.0 sec

Maximum memory used throughout the entire LEANSCF-calculation: 6.5 MB


-------------------------------------------------------------------------------
                          DFT DISPERSION CORRECTION                            
                                                                               
                              DFTD3 V3.1  Rev 1                                
                          USING Becke-Johnson damping                          
-------------------------------------------------------------------------------
The B3LYP functional is recognized
Active option DFTDOPT                   ...         4   

molecular C6(AA) [au] = 453.830693 


            DFT-D V3
 parameters
 s6 scaling factor         :     1.0000 
 a1 scaling factor         :     0.3981 
 s8 scaling factor         :     1.9889 
 a2 scaling factor         :     4.4211 
 ad hoc parameters k1-k3   :    16.0000     1.3333    -4.0000 

 Edisp/kcal,au: -3.178017951570  -0.005064493436 
 E6   /kcal   :  -1.638105002 
 E8   /kcal   :  -1.539912949 
 % E8         :  48.455136899 

-------------------------   ----------------
Dispersion correction           -0.005064493
-------------------------   ----------------


-------------------------   --------------------
FINAL SINGLE POINT ENERGY      -170.842922934733
-------------------------   --------------------



           ************************************************************
           *        Program running with 6 parallel MPI-processes     *
           *              working on a common directory               *
           ************************************************************
------------------------------------------------------------------------------
                         ORCA SCF GRADIENT CALCULATION
------------------------------------------------------------------------------

Nuc. rep. gradient        (SHARK) ... done (  0.0 sec)
HCore & Overlap gradient  (SHARK) ... done (  0.0 sec)
Split-RIJ-J gradient      (SHARK) ... done (  0.1 sec)
done (  0.9 sec)
XC gradient                       ... done (  0.2 sec)
Dispersion correction             ... done (  0.1 sec)

-------------------
DISPERSION GRADIENT
-------------------

   1   C   :    0.000337691   -0.000103985    0.000025220
   2   O   :    0.000235668   -0.000011885   -0.000113324
   3   N   :   -0.000366541    0.000081061    0.000040182
   4   H   :   -0.000125272    0.000064804    0.000021422
   5   H   :    0.000057683   -0.000021673    0.000012260
   6   H   :    0.000125917   -0.000058235    0.000052673
   7   H   :   -0.000140818    0.000002030   -0.000007669
   8   H   :   -0.000124328    0.000047883   -0.000030765

Difference to translation invariance:
           :   -0.0000000000   -0.0000000000   -0.0000000000

Difference to rotation invariance:
           :    0.0000000000    0.0000000000   -0.0000000000

Norm of the Dispersion gradient    ...    0.0006491951
RMS gradient                       ...    0.0001325164
MAX gradient                       ...    0.0003665410

------------------
CARTESIAN GRADIENT
------------------

   1   C   :    0.000086028    0.000016288    0.000059248
   2   O   :    0.000107598   -0.000081821    0.000135442
   3   N   :   -0.000112761   -0.000005500    0.000016828
   4   H   :    0.000032804   -0.000017213    0.000004958
   5   H   :   -0.000059649    0.000003840   -0.000138371
   6   H   :   -0.000011778    0.000071735   -0.000024960
   7   H   :   -0.000101240   -0.000059517    0.000045351
   8   H   :    0.000058999    0.000072188   -0.000098495

Difference to translation invariance:
           :   -0.0000000000    0.0000000000   -0.0000000001

Difference to rotation invariance:
           :   -0.0000616367    0.0000184876    0.0000262099

Norm of the Cartesian gradient     ...    0.0003536768
RMS gradient                       ...    0.0000721940
MAX gradient                       ...    0.0001383712

-------
TIMINGS
-------

Total SCF gradient time     ....        1.243 sec

Densities                   ....       0.000 sec  (  0.0%)
One electron gradient       ....       0.012 sec  (  1.0%)
RI-J Coulomb gradient       ....       0.132 sec  ( 10.6%)
COSX gradient               ....       0.853 sec  ( 68.7%)
XC gradient                 ....       0.191 sec  ( 15.4%)

Maximum memory used throughout the entire SCFGRAD-calculation: 26.0 MB


           ************************************************************
           *        Program running with 6 parallel MPI-processes     *
           *              working on a common directory               *
           ************************************************************

------------------------------------------------------------------------------
                              ORCA PROPERTY CALCULATIONS
------------------------------------------------------------------------------

GBWName                                 ... orca.gbw
Number of atoms                         ...      8
Number of basis functions               ...     67
Max core memory                         ...   4096 MB

Electric properties:
Dipole moment                           ... YES
Quadrupole moment                       ...  NO
Static polarizability (Dipole/Dipole)   ...  NO
Static polarizability (Dipole/Quad.)    ...  NO
Static polarizability (Quad./Quad.)     ...  NO
Static polarizability (Velocity)        ...  NO
Static hyperpolarizability              ...  NO

Atomic electric properties:
Dipole moment                           ...  NO
Quadrupole moment                       ...  NO
Static polarizability                   ...  NO

Choice of electric origin               ... Center of mass
Position of electric origin             ...    -0.306965    -0.351252    -0.530925

General magnetic properties:
Magnetizability                         ...  NO

EPR properties:
g-Tensor (aka g-matrix)                 ...  NO
Zero-Field splitting spin-orbit         ...  NO
Zero-field splitting spin-spin          ...  NO
Hyperfine couplings                     ...  NO (   0 nuclei)
Quadrupole couplings                    ...  NO (   0 nuclei)
Contact density                         ...  NO (   0 nuclei)

NMR properties:
Chemical shifts                         ...  NO (   0 nuclei)
Spin-rotation constants                 ...  NO (   0 nuclei)
Spin-spin couplings                     ...  NO (   0 nuclei,    0 pairs)

Choice of magnetic origin               ... GIAO
Position of magnetic origin             ...     0.000000     0.000000     0.000000

Properties with geometric perturbations:
SCF Hessian                             ...  NO
IR spectrum                             ...  NO
VCD spectrum                            ...  NO
X-ray spectroscopy properties:
SCF XES/XAS/RIXS spectra                ...  NO

SCF SOC stabilization energy            ...  NO
Diagonal Born-Oppenheimer correction    ...  NO

-------------
DIPOLE MOMENT
-------------

Method             : SCF
Type of density    : Electron Density
Multiplicity       :   1
Irrep              :   0
Energy             :  -170.8378584412967598 Eh
Basis              : AO
                                X                 Y                 Z
Electronic contribution:      3.151204888      -0.109866619      -1.617595885
Nuclear contribution   :     -3.308907652       0.038341840       1.873439533
                        -----------------------------------------
Total Dipole Moment    :     -0.157702764      -0.071524779       0.255843649
                        -----------------------------------------
Magnitude (a.u.)       :      0.308936771
Magnitude (Debye)      :      0.785254867



--------------------
Rotational spectrum 
--------------------
 
Rotational constants in cm-1:             1.141616             0.156578             0.140766 
Rotational constants in MHz :         34224.790300          4694.076895          4220.058657 

Dipole components along the rotational axes: 
x,y,z [a.u.] :    -0.186845     0.246005     0.003504 
x,y,z [Debye]:    -0.474922     0.625296     0.008907 

 

Dipole moment calculation done in   0.0 sec 

Maximum memory used throughout the entire PROP-calculation: 4.1 MB

--------------------------------
SUGGESTED CITATIONS FOR THIS RUN
--------------------------------

Below you find a list of papers that are relevant to this ORCA run
We neither can nor want to force you to cite these papers, but we appreciate if you do
You receive ORCA, which is the product of decades of hard work by many enthusiastic individuals, for free
The only thing we kindly ask in return is that you cite our papers,
We deeply appreciate it, if you show your appreciation for ORCA by not just citing the generic ORCA reference.

Please note that relegating all ORCA citations to the supporting information does *not* help us.
SI sections are not indexed - citations you put there will not count into any citation statistics
But we need these citations in order to attract the funding resources that allow us to do what we are doing

Therefore, if you are a happy ORCA user, please consider citing a few of the papers listed below in the main body of your paper

In addition to the list printed below, the program has created the file orca.bibtex that contains the list in bibtex format
You can import this file easily into all common literature databanks and citation aid programs


List of essential papers. We consider these as the minimum necessary citations

  1. Neese, F.
     Software update: the ORCA program system, version 6.0
     WIRES Comput. Molec. Sci. 2025 15(1), e70019
     doi.org/10.1002/wcms.7019

List of papers to cite with high priority. The work reported in these papers was absolutely
necessary for this run to complete.
Our perspective: the developers of density functionals and basis sets usually get cited in chemistry papers
Good! But without the algorithms to do something with them, the functionals or basis sets would not do anything.
Hence, in our opinion, the algorithm design and method developments papers are equally worthy of getting cited

  1. Neese, F.
     An improvement of the resolution of the identity approximation for the formation of the Coulomb matrix
     J. Comp. Chem. 2003 24(14), 1740-1747
     doi.org/10.1002/jcc.10318
  2. Neese, F.; Wennmohs, F.; Hansen, A.; Becker, U.
     Efficient, approximate and parallel Hartree-Fock and hybrid DFT calculations. A 'chain-of-spheres' algorithm for the Hartree-Fock exchange
     Chem. Phys. 2009 356(1-3), 98-109
     doi.org/10.1016/j.chemphys.2008.10.036
  3. Grimme, S.; Antony, J.; Ehrlich, S.; Krieg, H.
     A consistent and accurate ab initio parametrization of density functional dispersion correction (DFT-D) for the 94 elements H-Pu
     J. Chem. Phys. 2010 132 , 154104
     doi.org/10.1063/1.3382344
  4. Grimme, S.; Ehrlich, S.; Goerigk, L.
     Effect of the damping function in dispersion corrected density functional theory
     J. Comput. Chem. 2011 32(7), 1456-1465
     doi.org/10.1002/jcc.21759
  5. Helmich-Paris, B.; de Souza, B.; Neese, F.; Izsák, R.
     An improved chain of spheres for exchange algorithm
     J. Chem. Phys. 2021 155(10), 104109
     doi.org/10.1063/5.0058766
  6. Neese, F.
     The SHARK Integral Generation and Digestion System
     J. Comp. Chem. 2022 44(3), 381
     doi.org/10.1002/jcc.26942

List of suggested additional citations. These are papers that are important in the 'surrounding' of 
of this run, or papers that preceded the highly important papers. If you like your results we are grateful for a citation.

  1. Izsak, R.; Neese, F.
     An overlap fitted chain of spheres exchange method
     J. Chem. Phys. 2011 135 , 144105
     doi.org/10.1063/1.3646921
  2. Izsak, R.; Hansen, A.; Neese, F.
     The resolution of identity and chain of spheres approximations for the LPNO-CCSD singles Fock term
     Molec. Phys. 2012 110 , 2413-2417
     doi.org/10.1080/00268976.2012.687466
  3. Neese, F.
     The ORCA program system
     WIRES Comput. Molec. Sci. 2012 2(1), 73-78
     doi.org/10.1002/wcms.81
  4. Izsak, R.; Neese, F.; Klopper, W.
     Robust fitting techniques in the chain of spheres approximation to the Fock exchange: The role of the complementary space
     J. Chem. Phys. 2013 139 , 
     doi.org/10.1063/1.4819264
  5. Neese, F.
     Software update: the ORCA program system, version 4.0
     WIRES Comput. Molec. Sci. 2018 8(1), 1-6
     doi.org/10.1002/wcms.1327
  6. Neese, F.; Wennmohs, F.; Becker, U.; Riplinger, C.
     The ORCA quantum chemistry program package
     J. Chem. Phys. 2020 152(22), 224108
     doi.org/10.1063/5.0004608
  7. Neese, F.
     Software update: The ORCA program system—Version 5.0
     WIRES Comput. Molec. Sci. 2022 12(1), e1606
     doi.org/10.1002/wcms.1606

List of optional additional citations

  1. Neese, F.
     Approximate second-order SCF convergence for spin unrestricted wavefunctions
     Chem. Phys. Lett. 2000 325(1-3), 93-98
     doi.org/10.1016/s0009-2614(00)00662-x

Timings for individual modules:

Sum of individual times          ...        5.948 sec (=   0.099 min)
Startup calculation              ...        0.871 sec (=   0.015 min)  14.6 %
SCF iterations                   ...        2.879 sec (=   0.048 min)  48.4 %
Property calculations            ...        0.416 sec (=   0.007 min)   7.0 %
SCF Gradient evaluation          ...        1.783 sec (=   0.030 min)  30.0 %
                             ****ORCA TERMINATED NORMALLY****
TOTAL RUN TIME: 0 days 0 hours 0 minutes 6 seconds 489 msec
