
                                 *****************
                                 * O   R   C   A *
                                 *****************

                                            #,                                       
                                            ###                                      
                                            ####                                     
                                            #####                                    
                                            ######                                   
                                           ########,                                 
                                     ,,################,,,,,                         
                               ,,#################################,,                 
                          ,,##########################################,,             
                       ,#########################################, ''#####,          
                    ,#############################################,,   '####,        
                  ,##################################################,,,,####,       
                ,###########''''           ''''###############################       
              ,#####''   ,,,,##########,,,,          '''####'''          '####       
            ,##' ,,,,###########################,,,                        '##       
           ' ,,###''''                  '''############,,,                           
         ,,##''                                '''############,,,,        ,,,,,,###''
      ,#''                                            '''#######################'''  
     '                                                          ''''####''''         
             ,#######,   #######,   ,#######,      ##                                
            ,#'     '#,  ##    ##  ,#'     '#,    #''#        ,####,    ,#,          
            ##       ##  ##   ,#'  ##            #'  '#       #'       ,# #          
            ##       ##  #######   ##           ,######,      #####,      #          
            '#,     ,#'  ##    ##  '#,     ,#' ,#      #,     #,   #      #          
             '#######'   ##     ##  '#######'  #'      '#     '####' #    #          



                #########################################################
                #                        -***-                          #
                #          Department of theory and spectroscopy        #
                #                                                       #
                #                      Frank Neese                      #
                #                                                       #
                #     Directorship, Architecture, Infrastructure        #
                #                    SHARK, DRIVERS                     #
                #        Core code/Algorithms in most modules           #
                #                                                       #
                #        Max Planck Institute fuer Kohlenforschung      #
                #                Kaiser Wilhelm Platz 1                 #
                #                 D-45470 Muelheim/Ruhr                 #
                #                      Germany                          #
                #                                                       #
                #                  All rights reserved                  #
                #                        -***-                          #
                #########################################################


                         Program Version 6.1.0  -  RELEASE   -
                                (GIT: $679e74b$)
                          ($2025-06-10 18:02:51 +0200$)


 With contributions from (in alphabetic order):
[Max-Planck-Institut fuer Kohlenforschung]                               
  Daniel Aravena         : Magnetic Suceptibility                        
  Michael Atanasov       : Ab Initio Ligand Field Theory (pilot matlab implementation)
  Alexander A. Auer      : GIAO ZORA, VPT2 properties, NMR spectrum      
  Ute Becker             : All parallelization in ORCA, NUMFREQ, NUMCALC 
  Giovanni Bistoni       : ED, misc. LED, open-shell LED, HFLD           
  Dmytro Bykov           : pre 5.0 version of the SCF Hessian            
  Marcos Casanova-Páez   : Triplet and SCS-CIS(D). UHF-(DLPNO)-IP/EA/STEOM-CCSD. UHF-CVS-IP/STEOM-CCSD   
  Vijay G. Chilkuri      : MRCI spin determinant printing, contributions to CSF-ICE 
  Pauline Colinet        : FMM embedding                                 
  Dipayan Datta          : RHF DLPNO-CCSD density                        
  Achintya Kumar Dutta   : EOM-CC, STEOM-CC                              
  Nicolas Foglia         : Exact transition moments, OPA infrastructure, MCD improvements    
  Dmitry Ganyushin       : Spin-Orbit,Spin-Spin,Magnetic field MRCI      
  Miquel Garcia-Rates    : C-PCM and meta-GGA Hessian, CCSD/C-PCM, Gaussian charge scheme 
  Tiago L. C. Gouveia    : GS-ROHF, GS-ROCIS                             
  Yang Guo               : DLPNO-NEVPT2, F12-NEVPT2, CIM, IAO-localization        
  Andreas Hansen         : Spin unrestricted coupled pair/coupled cluster methods 
  Ingolf Harden          : AUTO-CI MPn and infrastructure                
  Benjamin Helmich-Paris : MC-RPA, TRAH-(SCF,CASSCF), AVAS, COSX integrals, SCF dyn. polar., MC-PDFT, srDFT 
  Lee Huntington         : MR-EOM, pCC                                   
  Robert Izsak           : Overlap fitted RIJCOSX, COSX-SCS-MP3, EOM     
  Riya Kayal             : Wick's Theorem for AUTO-CI, AUTO-CI UHF-CCSDT 
  Emily Kempfer          : AUTO-CI RHF CISDT and CCSDT, approximate NEVPT4
  Christian Kollmar      : KDIIS, OOCD, Brueckner-CCSD(T), CCSD density, CASPT2, CASPT2-K, improved NEVPT2 
  Axel Koslowski         : Symmetry handling                             
  Simone Kossmann        : meta-GGA functionals, TD-DFT gradient, OOMP2, (MP2 Hessian; deprecated post 5.0) 
  Lucas Lang             : DCDCAS, Hyperfine gauge corrections, ICE-SOC+SSC
  Marvin Lechner         : AUTO-CI (C++ implementation), FIC-MRCC        
  Spencer Leger          : CASSCF response                               
  Dagmar Lenk            : GEPOL surface, SMD, ORCA-2-JSON               
  Dimitrios Liakos       : Extrapolation schemes; Compound Job, Property file
  Dimitrios Manganas     : Further ROCIS development; embedding schemes. LFT, Crystal Embedding 
  Dimitrios Pantazis     : SARC Basis sets                               
  Anastasios Papadopoulos: AUTO-CI, single reference methods and gradients 
  Taras Petrenko         : pre 6.0 DFT Hessian and TD-DFT gradient,  ECA, NRVS 
  Petra Pikulova         : Analytic Raman intensities                    
  Peter Pinski           : DLPNO-MP2, DLPNO-MP2 Gradient                 
  Shashank Vittal Rao    : ES-AILFT, MagRelax                            
  Christoph Reimann      : Effective Core Potentials                     
  Marius Retegan         : Local ZFS, SOC                                
  Christoph Riplinger    : Optimizer, TS searches, QM/MM, DLPNO-CCSD(T), (RO)-DLPNO pert. Triples 
  Michael Roemelt        : Original ROCIS implementation, recursive CI coupling coefficients
  Masaaki Saitow         : Open-shell DLPNO-CCSD energy and density      
  Barbara Sandhoefer     : DKH picture change effects                    
  Yorick L. A. Schmerwitz: GMF and freeze-and-release deltaSCF, NEB S-IDPP initial path                    
  Kantharuban Sivalingam : CASSCF convergence/infrastructure, NEVPT2, NEVPT3, NEVPT4(SD), FIC-MRCI and CEPA variants
  Bernardo de Souza      : ESD, SOC TD-DFT                               
  Georgi L. Stoychev     : AutoAux, RI-MP2 NMR, DLPNO-MP2 response, X2C  
  Van Anh Tran           : RI-MP2 g-tensors                              
  Willem Van den Heuvel  : Paramagnetic NMR                              
  Zikuan Wang            : NOTCH, Electric field optimization            
  Frank Wennmohs         : Technical directorship and infrastructure     
  Hang Xu                : AUTO-CI-Response properties                   
                                                                         
[FACCTs GmbH]                                                            
  Markus Bursch, Nicolas Foglia, Miquel Garcia-Rates, Ingolf Harden, Hagen Neugebauer, Anastasios Papadopoulos, 
  Christoph Riplinger, Bernardo de Souza, Georgi L. Stoychev                                                    
                                                                 
  APM, various basis sets, CI-OPT, improved COSX, DLPNO-Multilevel,           
  DOCKER, DRACO, updates on ESD, Fragmentator, GOAT, IRC, LR-CPCM, L-BFGS, MBIS, meta-GGA TD-DFT gradient, ML-optimized integration grids, 
  MM, NACMEs, nearIR, NEB, NEB-TS, NL-DFT gradient (VV10), 2- and 3-layer-ONIOM, interface openCOSMO-RS, QMMM,   
  Crystal-QMMM, RESP, rigid body optimization, SF, symmetry and pop. for TD-DFT, various functionals, SOLVATOR                                   
                                                                         
[Other institutions]                                                     
  V. Asgeirsson          : NEB                                           
  Christoph Bannwarth    : sTDA-DFT, sTD-DFT, PBEh-3c, B97-3c, D3        
  Giovanni Bistoni       : ETS/NOCV, ADLD/ADEX, COVALED                  
  Martin Brehm           : Molecular dynamics                            
  Ronald Cardenas        : ETS/NOCV                                      
  Martina Colucci        : COVALED                                       
  Sebastian Ehlert       : rSCAN, r2SCAN, r2SCAN-3c, D4, dhf basis sets  
  Marvin Friede          : D4 for Fr, Ra, Ac-Lr                          
  Lars Goerigk           : TD-DFT with DH, B97 family of functionals     
  Stefan Grimme          : VdW corrections, initial TS optimization, DFT functionals, gCP, sTDA/sTD-DF 
  Waldemar Hujo          : DFT-NL                                        
  H. Jonsson             : NEB                                           
  Holger Kruse           : gCP                                           
  Marcel Mueller         : wB97X-3c, vDZP basis set                      
  Hagen Neugebauer       : wr2SCAN, Native XTB                           
  Gianluca Regni         : ADLD/ADEX                                     
  Tobias Risthaus        : pre 6.0 range-separated hybrid DFT and stability analysis
  Lukas Wittmann         : regularized MP2, r2SCAN double-hybrids, wr2SCAN        
                                                                         
We gratefully acknowledge several colleagues who have allowed us to      
interface, adapt or use parts of their codes:                            
  Ed Valeev, F. Pavosevic, A. Kumar             : LibInt (2-el integral package), F12 methods 
  Garnet Chan, S. Sharma, J. Yang, R. Olivares  : DMRG                   
  Ulf Ekstrom                                   : XCFun DFT Library      
  Mihaly Kallay                                 : mrcc  (arbitrary order and MRCC methods)
  Frank Weinhold                                : gennbo (NPA and NBO analysis)           
  Simon Mueller                                 : openCOSMO-RS                            
  Christopher J. Cramer and Donald G. Truhlar   : smd solvation model                     
  S Lehtola, MJT Oliveira, MAL Marques          : LibXC Library                           
  Liviu Ungur et al                             : ANISO software                          


 Your calculation uses the libint2 library for the computation of 2-el integrals
 For citations please refer to: http://libint.valeyev.net

 Your ORCA version has been built with support for libXC version: 7.0.0
 For citations please refer to: https://libxc.gitlab.io

 This ORCA versions uses:
   CBLAS   interface :  Fast vector & matrix operations
   LAPACKE interface :  Fast linear algebra routines
   SCALAPACK package :  Parallel linear algebra routines
   Shared memory     :  Shared parallel matrices
   BLAS/LAPACK       :  OpenBLAS 0.3.29  USE64BITINT DYNAMIC_ARCH NO_AFFINITY Zen SINGLE_THREADED
        Core in use  :  Zen
   Copyright (c) 2011-2014, The OpenBLAS Project


  ***********************************
  * Starting time: Wed Sep 10 13:39:03 2025
  * Host name:     wyk-Server
  * Process ID:    2312589
  * Working dir.:  /home/wyk/Documents/code/openQDC/MGMR/singlepointcalc/112/react
  ***********************************

Your calculation utilizes the atom-pairwise dispersion correction
with the Becke-Johnson damping scheme (D3BJ)


Warning: RI is on but no J-basis has been assigned. Assigning Def2/J (nothing to worry about!)
================================================================================

----- Orbital basis set information -----
Your calculation utilizes the basis: def2-SVP
   F. Weigend and R. Ahlrichs, Phys. Chem. Chem. Phys. 7, 3297 (2005).

----- AuxJ basis set information -----
Your calculation utilizes the auxiliary basis: def2/J
   H-Rn: F. Weigend, Phys. Chem. Chem. Phys. 8, 1057 (2006).
   Fr-Lr: K. Eichkorn, F. Weigend, O. Treutler, R. Ahlrichs; Theor. Chem. Acc. 97, 119 (1997).

================================================================================
                                        WARNINGS
                       Please study these warnings very carefully!
================================================================================


================================================================================
                                       INPUT FILE
================================================================================
NAME = orca.inp
|  1> ! B3LYP def2-SVP d3 EnGrad 
|  2> %pal nprocs 6 end 
|  3> *xyz 0 1 
|  4> C   -0.68432250105073 1.91791629735588 -0.48054172511861
|  5> H   -1.53612906758603 1.39200879526999 -0.00763334155213
|  6> H   -0.83315205610761 1.87569899655704 -1.56995655798047
|  7> H   -0.6565428967113 2.9589195501263 -0.13660638980533
|  8> C   0.59484149902475 1.23380963422406 -0.09758994569369
|  9> O   0.70898707632263 0.01842577412506 -0.72081968850994
| 10> O   1.42971320488056 1.64286476248071 0.66560441333084
| 11> C   1.86656486059245 -0.78531096223494 -0.39728962813732
| 12> H   2.01585446928416 -1.42458217904235 -1.27989464656442
| 13> H   2.73153579083829 -0.1163824461979 -0.28559024443314
| 14> C   1.63342670654854 -1.60957858984604 0.85636403010327
| 15> H   1.53094654670859 -0.95504723523695 1.73479002918539
| 16> H   2.48861812064091 -2.28281240010149 1.02769214998189
| 17> H   0.72168653835481 -2.21730885946548 0.75169516817969
| 18> O   -3.08424213083654 0.07891431952033 0.77541797877554
| 19> H   -2.80541919254909 0.00277073086586 1.6981742840524
| 20> H   -2.61283636975558 -0.66039391525464 0.33602125645008
| 21> O   -1.4604076989308 -1.73547363087178 -0.57123759539055
| 22> H   -1.80835617702838 -2.01909111355727 -1.4273671532164
| 23> H   -0.76193572263965 -1.08404750871642 -0.78198540365711
| 24> *
| 25> 
| 26>                          ****END OF INPUT****
================================================================================

                     *******************************
                     * Energy+Gradient Calculation *
                     *******************************

---------------------------------
CARTESIAN COORDINATES (ANGSTROEM)
---------------------------------
  C     -0.684323    1.917916   -0.480542
  H     -1.536129    1.392009   -0.007633
  H     -0.833152    1.875699   -1.569957
  H     -0.656543    2.958920   -0.136606
  C      0.594841    1.233810   -0.097590
  O      0.708987    0.018426   -0.720820
  O      1.429713    1.642865    0.665604
  C      1.866565   -0.785311   -0.397290
  H      2.015854   -1.424582   -1.279895
  H      2.731536   -0.116382   -0.285590
  C      1.633427   -1.609579    0.856364
  H      1.530947   -0.955047    1.734790
  H      2.488618   -2.282812    1.027692
  H      0.721687   -2.217309    0.751695
  O     -3.084242    0.078914    0.775418
  H     -2.805419    0.002771    1.698174
  H     -2.612836   -0.660394    0.336021
  O     -1.460408   -1.735474   -0.571238
  H     -1.808356   -2.019091   -1.427367
  H     -0.761936   -1.084048   -0.781985

----------------------------
CARTESIAN COORDINATES (A.U.)
----------------------------
  NO LB      ZA    FRAG     MASS         X           Y           Z
   0 C     6.0000    0    12.011   -1.293182    3.624337   -0.908092
   1 H     1.0000    0     1.008   -2.902863    2.630515   -0.014425
   2 H     1.0000    0     1.008   -1.574429    3.544557   -2.966788
   3 H     1.0000    0     1.008   -1.240686    5.591548   -0.258149
   4 C     6.0000    0    12.011    1.124088    2.331562   -0.184418
   5 O     8.0000    0    15.999    1.339791    0.034820   -1.362152
   6 O     8.0000    0    15.999    2.701766    3.104564    1.257810
   7 C     6.0000    0    12.011    3.527296   -1.484023   -0.750769
   8 H     1.0000    0     1.008    3.809413   -2.692070   -2.418650
   9 H     1.0000    0     1.008    5.161855   -0.219931   -0.539687
  10 C     6.0000    0    12.011    3.086729   -3.041663    1.618293
  11 H     1.0000    0     1.008    2.893070   -1.804778    3.278278
  12 H     1.0000    0     1.008    4.702807   -4.313890    1.942057
  13 H     1.0000    0     1.008    1.363790   -4.190106    1.420498
  14 O     8.0000    0    15.999   -5.828373    0.149126    1.465328
  15 H     1.0000    0     1.008   -5.301474    0.005236    3.209084
  16 H     1.0000    0     1.008   -4.937545   -1.247964    0.634988
  17 O     8.0000    0    15.999   -2.759771   -3.279570   -1.079483
  18 H     1.0000    0     1.008   -3.417298   -3.815529   -2.697333
  19 H     1.0000    0     1.008   -1.439850   -2.048553   -1.477738

--------------------------------
INTERNAL COORDINATES (ANGSTROEM)
--------------------------------
 C      0   0   0     0.000000000000     0.00000000     0.00000000
 H      1   0   0     1.107156478006     0.00000000     0.00000000
 H      1   2   0     1.100344134807   107.49414346     0.00000000
 H      1   2   3     1.096700047220   109.65875812   120.17627382
 C      1   2   3     1.500304812695   109.28955130   240.01903503
 O      5   1   2     1.370621192211   111.05571318    71.35577416
 O      5   1   2     1.202831032539   126.77467704   252.54610022
 C      6   5   1     1.445908284773   117.24793099   182.81818646
 H      8   6   5     1.099975769940   104.60608967   205.57007480
 H      8   6   5     1.099143676713   108.32851461   321.92073506
 C      8   6   5     1.518360304940   111.32039311    84.92210460
 H     11   8   6     1.100248023489   110.52116642   293.94305315
 H     11   8   6     1.101793738714   109.93298517   174.62152398
 H     11   8   6     1.100709673604   110.38961070    54.73201092
 O      2   1   3     2.175785037433   171.04483026    66.15488880
 H     15   2   1     0.966963947589   100.70761581   105.01937988
 H     15   2   1     0.980749477276    87.23124990     2.02952454
 O     17  15   2     1.818517764696   166.84725725     4.32760056
 H     18  17  15     0.966677215868   112.78004117   251.11486812
 H     18  17  15     0.978076547607    99.57333449     2.12866848

---------------------------
INTERNAL COORDINATES (A.U.)
---------------------------
 C      0   0   0     0.000000000000     0.00000000     0.00000000
 H      1   0   0     2.092222530828     0.00000000     0.00000000
 H      1   2   0     2.079349067852   107.49414346     0.00000000
 H      1   2   3     2.072462740305   109.65875812   120.17627382
 C      1   2   3     2.835165213397   109.28955130   240.01903503
 O      5   1   2     2.590098686627   111.05571318    71.35577416
 O      5   1   2     2.273021236880   126.77467704   252.54610022
 C      6   5   1     2.732370672988   117.24793099   182.81818646
 H      8   6   5     2.078652959135   104.60608967   205.57007480
 H      8   6   5     2.077080530818   108.32851461   321.92073506
 C      8   6   5     2.869285148954   111.32039311    84.92210460
 H     11   8   6     2.079167443782   110.52116642   293.94305315
 H     11   8   6     2.082088422239   109.93298517   174.62152398
 H     11   8   6     2.080039836070   110.38961070    54.73201092
 O      2   1   3     4.111637847032   171.04483026    66.15488880
 H     15   2   1     1.827297042318   100.70761581   105.01937988
 H     15   2   1     1.853347918038    87.23124990     2.02952454
 O     17  15   2     3.436500544945   166.84725725     4.32760056
 H     18  17  15     1.826755197892   112.78004117   251.11486812
 H     18  17  15     1.848296812989    99.57333449     2.12866848

---------------------
BASIS SET INFORMATION
---------------------
There are 3 groups of distinct atoms

 Group   1 Type C   : 7s4p1d contracted to 3s2p1d pattern {511/31/1}
 Group   2 Type H   : 4s1p contracted to 2s1p pattern {31/1}
 Group   3 Type O   : 7s4p1d contracted to 3s2p1d pattern {511/31/1}

Atom   0C    basis set group =>   1
Atom   1H    basis set group =>   2
Atom   2H    basis set group =>   2
Atom   3H    basis set group =>   2
Atom   4C    basis set group =>   1
Atom   5O    basis set group =>   3
Atom   6O    basis set group =>   3
Atom   7C    basis set group =>   1
Atom   8H    basis set group =>   2
Atom   9H    basis set group =>   2
Atom  10C    basis set group =>   1
Atom  11H    basis set group =>   2
Atom  12H    basis set group =>   2
Atom  13H    basis set group =>   2
Atom  14O    basis set group =>   3
Atom  15H    basis set group =>   2
Atom  16H    basis set group =>   2
Atom  17O    basis set group =>   3
Atom  18H    basis set group =>   2
Atom  19H    basis set group =>   2
---------------------------------
AUXILIARY/J BASIS SET INFORMATION
---------------------------------
There are 3 groups of distinct atoms

 Group   1 Type C   : 12s5p4d2f1g contracted to 6s4p3d1f1g pattern {711111/2111/211/2/1}
 Group   2 Type H   : 5s2p1d contracted to 3s1p1d pattern {311/2/1}
 Group   3 Type O   : 12s5p4d2f1g contracted to 6s4p3d1f1g pattern {711111/2111/211/2/1}

Atom   0C    basis set group =>   1
Atom   1H    basis set group =>   2
Atom   2H    basis set group =>   2
Atom   3H    basis set group =>   2
Atom   4C    basis set group =>   1
Atom   5O    basis set group =>   3
Atom   6O    basis set group =>   3
Atom   7C    basis set group =>   1
Atom   8H    basis set group =>   2
Atom   9H    basis set group =>   2
Atom  10C    basis set group =>   1
Atom  11H    basis set group =>   2
Atom  12H    basis set group =>   2
Atom  13H    basis set group =>   2
Atom  14O    basis set group =>   3
Atom  15H    basis set group =>   2
Atom  16H    basis set group =>   2
Atom  17O    basis set group =>   3
Atom  18H    basis set group =>   2
Atom  19H    basis set group =>   2


           ************************************************************
           *        Program running with 6 parallel MPI-processes     *
           *              working on a common directory               *
           ************************************************************
------------------------------------------------------------------------------
                             ORCA STARTUP CALCULATIONS
                           -- RI-GTO INTEGRALS CHOSEN --
------------------------------------------------------------------------------
------------------------------------------------------------------------------
                   ___                                                        
                  /   \      - P O W E R E D   B Y -                         
                 /     \                                                     
                 |  |  |   _    _      __       _____    __    __             
                 |  |  |  | |  | |    /  \     |  _  \  |  |  /  |          
                  \  \/   | |  | |   /    \    | | | |  |  | /  /          
                 / \  \   | |__| |  /  /\  \   | |_| |  |  |/  /          
                |  |  |   |  __  | /  /__\  \  |    /   |      \           
                |  |  |   | |  | | |   __   |  |    \   |  |\   \          
                \     /   | |  | | |  |  |  |  | |\  \  |  | \   \       
                 \___/    |_|  |_| |__|  |__|  |_| \__\ |__|  \__/        
                                                                              
                      - O R C A' S   B I G   F R I E N D -                    
                                      &                                       
                       - I N T E G R A L  F E E D E R -                       
                                                                              
 v1 FN, 2020, v2 2021, v3 2022-2024                                           
------------------------------------------------------------------------------


----------------------
SHARK INTEGRAL PACKAGE
----------------------

Number of atoms                             ...     20
Number of basis functions                   ...    172
Number of shells                            ...     84
Maximum angular momentum                    ...      2
Integral batch strategy                     ... SHARK/LIBINT Hybrid
RI-J (if used) integral strategy            ... SPLIT-RIJ (Revised 2003 algorithm where possible)
Printlevel                                  ...      1
Contraction scheme used                     ... SEGMENTED contraction
Prescreening option                         ... SCHWARTZ
   Thresh                                   ... 2.500e-11
   Tcut                                     ... 2.500e-12
   Tpresel                                  ... 2.500e-12 
Coulomb Range Separation                    ... NOT USED
Exchange Range Separation                   ... NOT USED
Multipole approximations                    ... NOT USED
Finite Nucleus Model                        ... NOT USED
CABS basis                                  ... NOT available
Auxiliary Coulomb fitting basis             ... AVAILABLE
   # of basis functions in Aux-J            ...    524
   # of shells in Aux-J                     ...    180
   Maximum angular momentum in Aux-J        ...      4
Auxiliary J/K fitting basis                 ... NOT available
Auxiliary Correlation fitting basis         ... NOT available
Auxiliary 'external' fitting basis          ... NOT available

Checking pre-screening integrals            ... done (  0.0 sec) Dimension = 84
   => SHARK Basis and OBASIS are compatible. Storing Pre-screening
Shell pair information
Shell pair cut-off parameter TPreSel        ...   2.5e-12
Total number of shell pairs                 ...      3570
Shell pairs after pre-screening             ...      3281
Total number of primitive shell pairs       ...     12386
Primitive shell pairs kept                  ...      8151
          la=0 lb=0:   1102 shell pairs
          la=1 lb=0:   1233 shell pairs
          la=1 lb=1:    369 shell pairs
          la=2 lb=0:    347 shell pairs
          la=2 lb=1:    199 shell pairs
          la=2 lb=2:     31 shell pairs

Checking whether 4 symmetric matrices of dimension 172 fit in memory
:Max Core in MB      =   4096.00
 MB in use           =      7.45
 MB left             =   4088.55
 MB needed           =      0.45
 Data fit in memory  = YES
Calculating RI/J V-Matrix + Cholesky decomp.... done (  0.0 sec)
Calculating Nuclear repulsion               ... done (  0.0 sec) ENN=    415.870568724359 Eh

Diagonalization of the overlap matrix:
Smallest eigenvalue                        ... 2.615e-03
Time for diagonalization                   ...    0.005 sec
Threshold for overlap eigenvalues          ... 1.000e-07
Number of eigenvalues below threshold      ... 0
Time for construction of square roots      ...    0.002 sec
Total time needed                          ...    0.008 sec

-------------------
DFT GRID GENERATION
-------------------

General Integration Accuracy     IntAcc      ... 4.388
Radial Grid Type                 RadialGrid  ... OptM3 with GC (2021)
Angular Grid (max. ang.)         AngularGrid ... 4 (Lebedev-302)
Angular grid pruning method      GridPruning ... 4 (adaptive)
Weight generation scheme         WeightScheme... mBecke (2022)
Basis function cutoff            BFCut       ... 1.0000e-11
Integration weight cutoff        WCut        ... 1.0000e-14
Partially contracted basis set               ... off
Rotationally invariant grid construction     ... off
Angular grids for H and He will be reduced by one unit

Total number of grid points                  ...    87100
Total number of batches                      ...     1370
Average number of points per batch           ...       63
Average number of grid points per atom       ...     4355

--------------------
COSX GRID GENERATION
--------------------

GRIDX 1
-------
General Integration Accuracy     IntAcc      ... 3.816
Radial Grid Type                 RadialGrid  ... OptM3 with GC (2021)
Angular Grid (max. ang.)         AngularGrid ... 1 (Lebedev-50)
Angular grid pruning method      GridPruning ... 4 (adaptive)
Weight generation scheme         WeightScheme... mBecke (2022)
Basis function cutoff            BFCut       ... 1.0000e-11
Integration weight cutoff        WCut        ... 1.0000e-14
Partially contracted basis set               ... on
Rotationally invariant grid construction     ... off
Angular grids for H and He will be reduced by one unit

Total number of grid points                  ...    11152
Total number of batches                      ...       98
Average number of points per batch           ...      113
Average number of grid points per atom       ...      558
UseSFitting                                  ... on

GRIDX 2
-------
General Integration Accuracy     IntAcc      ... 4.020
Radial Grid Type                 RadialGrid  ... OptM3 with GC (2021)
Angular Grid (max. ang.)         AngularGrid ... 2 (Lebedev-110)
Angular grid pruning method      GridPruning ... 4 (adaptive)
Weight generation scheme         WeightScheme... mBecke (2022)
Basis function cutoff            BFCut       ... 1.0000e-11
Integration weight cutoff        WCut        ... 1.0000e-14
Partially contracted basis set               ... on
Rotationally invariant grid construction     ... off
Angular grids for H and He will be reduced by one unit

Total number of grid points                  ...    23611
Total number of batches                      ...      195
Average number of points per batch           ...      121
Average number of grid points per atom       ...     1181
UseSFitting                                  ... on

GRIDX 3
-------
General Integration Accuracy     IntAcc      ... 4.338
Radial Grid Type                 RadialGrid  ... OptM3 with GC (2021)
Angular Grid (max. ang.)         AngularGrid ... 3 (Lebedev-194)
Angular grid pruning method      GridPruning ... 4 (adaptive)
Weight generation scheme         WeightScheme... mBecke (2022)
Basis function cutoff            BFCut       ... 1.0000e-11
Integration weight cutoff        WCut        ... 1.0000e-14
Partially contracted basis set               ... on
Rotationally invariant grid construction     ... off
Angular grids for H and He will be reduced by one unit

Total number of grid points                  ...    51560
Total number of batches                      ...      414
Average number of points per batch           ...      124
Average number of grid points per atom       ...     2578
UseSFitting                                  ... on
Grids setup in   1.3 sec
Initializing property integral containers    ... done (  0.0 sec)

SHARK setup successfully completed in   1.5 seconds

Maximum memory used throughout the entire STARTUP-calculation: 25.4 MB


           ************************************************************
           *        Program running with 6 parallel MPI-processes     *
           *              working on a common directory               *
           ************************************************************
-------------------------------------------------------------------------------
                                 ORCA GUESS
                   Start orbitals & Density for SCF / CASSCF
-------------------------------------------------------------------------------

------------
SCF SETTINGS
------------
Hamiltonian:
 Density Functional     Method          .... DFT(GTOs)
 Exchange Functional    Exchange        .... B88
   X-Alpha parameter    XAlpha          ....  0.666667
   Becke's b parameter  XBeta           ....  0.004200
 Correlation Functional Correlation     .... LYP
 LDA part of GGA corr.  LDAOpt          .... VWN-5
 Gradients option       PostSCFGGA      .... off
 Hybrid DFT is turned on
   Fraction HF Exchange ScalHFX         ....  0.200000
   Scaling of DF-GGA-X  ScalDFX         ....  0.720000
   Scaling of DF-GGA-C  ScalDFC         ....  0.810000
   Scaling of DF-LDA-C  ScalLDAC        ....  1.000000
   Perturbative correction              ....  0.000000
   NL short-range parameter             ....  4.800000
 RI-approximation to the Coulomb term is turned on
   Number of AuxJ basis functions       .... 524
   RIJ-COSX (HFX calculated with COS-X)).... on


General Settings:
 Integral files         IntName         .... orca
 Hartree-Fock type      HFTyp           .... RHF
 Total Charge           Charge          ....    0
 Multiplicity           Mult            ....    1
 Number of Electrons    NEL             ....   68
 Basis Dimension        Dim             ....  172
 Nuclear Repulsion      ENuc            ....    415.8705687244 Eh

Convergence Acceleration:
 AO-DIIS                CNVDIIS         .... on
   Start iteration      DIISMaxIt       ....    12
   Startup error        DIISStart       ....  0.200000
   # of expansion vecs  DIISMaxEq       ....     5
   Bias factor          DIISBfac        ....   1.050
   Max. coefficient     DIISMaxC        ....  10.000
 MO-DIIS                CNVKDIIS        .... off
 Trust-Rad. Augm. Hess. CNVTRAH         .... auto
   Auto Start mean grad. ratio tolernc. ....  1.125000
   Auto Start start iteration           ....    50
   Auto Start num. interpolation iter.  ....    10
   Max. Number of Micro iterations      ....    24
   Max. Number of Macro iterations      .... Maxiter - #DIIS iter
   Number of Davidson start vectors     ....     2
   Converg. threshold    (grad. norm)   ....   1.000e-05
   Grad. Scal. Fac. for Micro threshold ....   0.100
   Minimum threshold for Micro iter.    ....   1.000e-02
   NR start threshold (gradient norm)   ....   1.000e-04
   Initial trust radius                 ....   0.400
   Minimum AH scaling param. (alpha)    ....   1.000
   Maximum AH scaling param. (alpha)    .... 1000.000
   Quad. conv. algorithm                .... NR
   White noise on init. David. guess    .... on
   Maximum white noise                  ....   0.010
   Pseudo random numbers                .... off
   Inactive MOs                         .... canonical
   Orbital update algorithm             .... Taylor
   Preconditioner                       .... Diag
   Full preconditioner red. dimension   ....   250
 SOSCF                 CNVSOSCF           .... on
   Start iteration     SOSCFMaxIt         ....   150
   Startup grad/error  SOSCFStart         ....  0.003300
   Hessian update      SOSCFHessUp        .... L-BFGS
   Autom. constraints  SOSCFAutoConstrain .... off
 Level Shifting         CNVShift        .... on
   Level shift para.    LevelShift      ....    0.2500
   Turn off err/grad.   ShiftErr        ....    0.0010
 Zerner damping         CNVZerner       .... off
 Static damping         CNVDamp         .... on
   Fraction old density DampFac         ....    0.7000
   Max. Damping (<1)    DampMax         ....    0.9800
   Min. Damping (>=0)   DampMin         ....    0.0000
   Turn off err/grad.   DampErr         ....    0.1000

SCF Procedure:
 Maximum # iterations   MaxIter         ....   125
 SCF integral mode      SCFMode         .... Direct
   Integral package                     .... SHARK and LIBINT hybrid scheme
 Reset frequency        DirectResetFreq ....    20
 Integral Threshold     Thresh          ....  2.500e-11 Eh
 Primitive CutOff       TCut            ....  2.500e-12 Eh

Convergence Tolerance:
 Convergence Check Mode ConvCheckMode   .... Total+1el-Energy
 Convergence forced     ConvForced      .... 0
 Energy Change          TolE            ....  1.000e-08 Eh
 1-El. energy change                    ....  1.000e-05 Eh
 Orbital Gradient       TolG            ....  1.000e-05
 Orbital Rotation angle TolX            ....  1.000e-05
 DIIS Error             TolErr          ....  5.000e-07

------------------------------
INITIAL GUESS: MODEL POTENTIAL
------------------------------
Loading Hartree-Fock densities                     ... done
Calculating cut-offs                               ... done
Initializing the effective Hamiltonian             ... done
Setting up the integral package (SHARK)            ... done
Starting the Coulomb interaction                   ... done (   0.1 sec)
Making the grid                                    ... done (   0.2 sec)
Mapping shells                                     ... done
Starting the XC term evaluation                    ... done (   0.0 sec)
  promolecular density results
     # of electrons  =     67.995307164
     EX              =    -56.889749302
     EC              =     -2.298692389
     EX+EC           =    -59.188441690
Transforming the Hamiltonian                       ... done (   0.0 sec)
Diagonalizing the Hamiltonian                      ... done (   0.0 sec)
Back transforming the eigenvectors                 ... done (   0.0 sec)
Now organizing SCF variables                       ... done
                      ------------------
                      INITIAL GUESS DONE (   0.3 sec)
                      ------------------
             **** ENERGY FILE WAS UPDATED (orca.en.tmp) ****
Finished Guess after   0.4 sec
Maximum memory used throughout the entire GUESS-calculation: 10.2 MB


           ************************************************************
           *        Program running with 6 parallel MPI-processes     *
           *              working on a common directory               *
           ************************************************************

-------------------------------------------------------------------------------------------
                                      ORCA LEAN-SCF
                              memory conserving SCF solver
-------------------------------------------------------------------------------------------

----------------------------------------D-I-I-S--------------------------------------------
Iteration    Energy (Eh)           Delta-E    RMSDP     MaxDP     DIISErr   Damp  Time(sec)
-------------------------------------------------------------------------------------------
               ***  Starting incremental Fock matrix formation  ***
    1    -459.6039397540407094     0.00e+00  1.05e-02  8.97e-02  2.98e-01  0.700   1.3
    2    -459.7849926352462830    -1.81e-01  6.52e-03  5.80e-02  1.27e-01  0.700   0.8
                               ***Turning on AO-DIIS***
    3    -459.8482361824327995    -6.32e-02  2.21e-03  2.01e-02  3.99e-02  0.700   0.7
    4    -459.8879865822501074    -3.98e-02  3.27e-03  2.35e-02  1.77e-02  0.000   0.7
    5    -459.9772652211483432    -8.93e-02  7.67e-04  6.91e-03  9.59e-03  0.000   0.8
                              *** Initializing SOSCF ***
---------------------------------------S-O-S-C-F--------------------------------------
Iteration    Energy (Eh)           Delta-E    RMSDP     MaxDP     MaxGrad    Time(sec)
--------------------------------------------------------------------------------------
    6    -459.9777202051444078    -4.55e-04  2.39e-04  2.24e-03  1.73e-03     0.7
               *** Restarting incremental Fock matrix formation ***
    7    -459.9778371842057254    -1.17e-04  1.54e-04  1.37e-03  2.16e-04     1.3
    8    -459.9778375380653301    -3.54e-07  5.25e-05  6.37e-04  3.06e-04     1.0
    9    -459.9778401764281739    -2.64e-06  3.83e-05  3.53e-04  1.33e-04     0.9
   10    -459.9778399273129139     2.49e-07  2.10e-05  2.75e-04  1.49e-04     0.9
   11    -459.9778404175150968    -4.90e-07  8.31e-06  8.02e-05  2.10e-05     0.8
   12    -459.9778404099644717     7.55e-09  4.81e-06  4.70e-05  2.97e-05     0.7
                 **** Energy Check signals convergence ****

               *****************************************************
               *                     SUCCESS                       *
               *           SCF CONVERGED AFTER  12 CYCLES          *
               *****************************************************

Recomputing exchange energy using gridx3       ... done (    1.985 sec)
Old exchange energy                            :    -11.567181086 Eh
New exchange energy                            :    -11.567204003 Eh
Exchange energy change after final integration :     -0.000022918 Eh
Total energy after final integration           :   -459.977863347 Eh
             **** ENERGY FILE WAS UPDATED (orca.en.tmp) ****

----------------
TOTAL SCF ENERGY
----------------

Total Energy       :       -459.97786334659907 Eh          -12516.63400 eV

Components:
Nuclear Repulsion  :        415.87056872435886 Eh           11316.41349 eV
Electronic Energy  :       -875.84840915332359 Eh          -23833.04686 eV
One Electron Energy:      -1453.82829688720881 Eh          -39560.67918 eV
Two Electron Energy:        577.97988773388522 Eh           15727.63232 eV

Virial components:
Potential Energy   :       -916.06966925276731 Eh          -24927.52299 eV
Kinetic Energy     :        456.09180590616825 Eh           12410.88900 eV
Virial Ratio       :          2.00852034040101

DFT components:
N(Alpha)           :       33.999970566262 electrons
N(Beta)            :       33.999970566262 electrons
N(Total)           :       67.999941132523 electrons
E(X)               :      -45.990847281910 Eh       
E(C)               :       -2.720912937330 Eh       
E(XC)              :      -48.711760219240 Eh       

---------------
SCF CONVERGENCE
---------------

  Last Energy change         ...   -7.5506e-09  Tolerance :   1.0000e-08
  Last MAX-Density change    ...    4.6952e-05  Tolerance :   1.0000e-07
  Last RMS-Density change    ...    4.8103e-06  Tolerance :   5.0000e-09
  Last DIIS Error            ...    1.7301e-03  Tolerance :   5.0000e-07
  Last Orbital Gradient      ...    2.9696e-05  Tolerance :   1.0000e-05
  Last Orbital Rotation      ...    2.8540e-05  Tolerance :   1.0000e-05


----------------
ORBITAL ENERGIES
----------------

  NO   OCC          E(Eh)            E(eV) 
   0   2.0000     -19.185609      -522.0670 
   1   2.0000     -19.143084      -520.9098 
   2   2.0000     -19.125090      -520.4201 
   3   2.0000     -19.101922      -519.7897 
   4   2.0000     -10.317181      -280.7448 
   5   2.0000     -10.250449      -278.9289 
   6   2.0000     -10.187634      -277.2196 
   7   2.0000     -10.187062      -277.2040 
   8   2.0000      -1.096836       -29.8464 
   9   2.0000      -1.011721       -27.5303 
  10   2.0000      -0.999793       -27.2058 
  11   2.0000      -0.959108       -26.0986 
  12   2.0000      -0.779801       -21.2195 
  13   2.0000      -0.727603       -19.7991 
  14   2.0000      -0.646033       -17.5795 
  15   2.0000      -0.566505       -15.4154 
  16   2.0000      -0.532739       -14.4966 
  17   2.0000      -0.503506       -13.7011 
  18   2.0000      -0.495024       -13.4703 
  19   2.0000      -0.486377       -13.2350 
  20   2.0000      -0.471613       -12.8332 
  21   2.0000      -0.439805       -11.9677 
  22   2.0000      -0.424663       -11.5557 
  23   2.0000      -0.408485       -11.1154 
  24   2.0000      -0.404207       -10.9990 
  25   2.0000      -0.391297       -10.6477 
  26   2.0000      -0.377035       -10.2596 
  27   2.0000      -0.368379       -10.0241 
  28   2.0000      -0.353062        -9.6073 
  29   2.0000      -0.347725        -9.4621 
  30   2.0000      -0.314204        -8.5499 
  31   2.0000      -0.312553        -8.5050 
  32   2.0000      -0.282449        -7.6858 
  33   2.0000      -0.274905        -7.4805 
  34   0.0000       0.005989         0.1630 
  35   0.0000       0.035584         0.9683 
  36   0.0000       0.076543         2.0828 
  37   0.0000       0.080071         2.1788 
  38   0.0000       0.091603         2.4926 
  39   0.0000       0.106630         2.9016 
  40   0.0000       0.117087         3.1861 
  41   0.0000       0.121243         3.2992 
  42   0.0000       0.135821         3.6959 
  43   0.0000       0.151651         4.1266 
  44   0.0000       0.164853         4.4859 
*Only the first 10 virtual orbitals were printed.

                    ********************************
                    * MULLIKEN POPULATION ANALYSIS *
                    ********************************

-----------------------
MULLIKEN ATOMIC CHARGES
-----------------------
   0 C :    0.029190
   1 H :    0.030052
   2 H :    0.029304
   3 H :    0.034635
   4 C :    0.137299
   5 O :   -0.370684
   6 O :   -0.221349
   7 C :    0.179412
   8 H :    0.016421
   9 H :    0.032831
  10 C :   -0.034577
  11 H :    0.034053
  12 H :    0.020438
  13 H :    0.027927
  14 O :   -0.284210
  15 H :    0.149863
  16 H :    0.136095
  17 O :   -0.285668
  18 H :    0.169056
  19 H :    0.169914
Sum of atomic charges:    0.0000000

--------------------------------
MULLIKEN REDUCED ORBITAL CHARGES
--------------------------------
  0 C s       :     2.941991  s :     2.941991
      pz      :     1.006178  p :     3.004584
      px      :     0.991233
      py      :     1.007172
      dz2     :     0.007008  d :     0.024235
      dxz     :     0.003063
      dyz     :     0.003083
      dx2y2   :     0.005416
      dxy     :     0.005665

  1 H s       :     0.943435  s :     0.943435
      pz      :     0.007023  p :     0.026512
      px      :     0.012331
      py      :     0.007159

  2 H s       :     0.947071  s :     0.947071
      pz      :     0.014129  p :     0.023626
      px      :     0.004808
      py      :     0.004689

  3 H s       :     0.942570  s :     0.942570
      pz      :     0.005487  p :     0.022795
      px      :     0.003961
      py      :     0.013348

  4 C s       :     3.091950  s :     3.091950
      pz      :     0.834092  p :     2.640260
      px      :     0.977627
      py      :     0.828540
      dz2     :     0.023490  d :     0.130491
      dxz     :     0.018391
      dyz     :     0.028152
      dx2y2   :     0.035273
      dxy     :     0.025185

  5 O s       :     3.761346  s :     3.761346
      pz      :     1.705642  p :     4.594904
      px      :     1.537026
      py      :     1.352236
      dz2     :     0.001953  d :     0.014434
      dxz     :     0.002003
      dyz     :     0.003799
      dx2y2   :     0.003799
      dxy     :     0.002880

  6 O s       :     3.743903  s :     3.743903
      pz      :     1.363232  p :     4.458674
      px      :     1.451656
      py      :     1.643786
      dz2     :     0.004441  d :     0.018772
      dxz     :     0.005365
      dyz     :     0.002632
      dx2y2   :     0.002813
      dxy     :     0.003520

  7 C s       :     3.010243  s :     3.010243
      pz      :     1.006093  p :     2.752689
      px      :     0.833701
      py      :     0.912895
      dz2     :     0.011411  d :     0.057656
      dxz     :     0.007447
      dyz     :     0.012691
      dx2y2   :     0.008132
      dxy     :     0.017974

  8 H s       :     0.963000  s :     0.963000
      pz      :     0.010456  p :     0.020579
      px      :     0.003104
      py      :     0.007018

  9 H s       :     0.945087  s :     0.945087
      pz      :     0.004518  p :     0.022082
      px      :     0.009581
      py      :     0.007982

 10 C s       :     3.007171  s :     3.007171
      pz      :     0.984386  p :     2.999884
      px      :     1.016328
      py      :     0.999170
      dz2     :     0.007497  d :     0.027522
      dxz     :     0.001627
      dyz     :     0.008158
      dx2y2   :     0.002125
      dxy     :     0.008116

 11 H s       :     0.942691  s :     0.942691
      pz      :     0.010323  p :     0.023256
      px      :     0.004878
      py      :     0.008055

 12 H s       :     0.956367  s :     0.956367
      pz      :     0.004645  p :     0.023195
      px      :     0.010241
      py      :     0.008309

 13 H s       :     0.948483  s :     0.948483
      pz      :     0.004248  p :     0.023590
      px      :     0.011817
      py      :     0.007525

 14 O s       :     3.678362  s :     3.678362
      pz      :     1.234262  p :     4.595839
      px      :     1.778216
      py      :     1.583360
      dz2     :     0.002957  d :     0.010009
      dxz     :     0.002189
      dyz     :     0.001207
      dx2y2   :     0.001137
      dxy     :     0.002519

 15 H s       :     0.779136  s :     0.779136
      pz      :     0.032999  p :     0.071001
      px      :     0.019761
      py      :     0.018241

 16 H s       :     0.790702  s :     0.790702
      pz      :     0.021636  p :     0.073203
      px      :     0.023048
      py      :     0.028519

 17 O s       :     3.679167  s :     3.679167
      pz      :     1.424529  p :     4.597026
      px      :     1.543412
      py      :     1.629084
      dz2     :     0.003763  d :     0.009476
      dxz     :     0.002044
      dyz     :     0.001680
      dx2y2   :     0.000174
      dxy     :     0.001816

 18 H s       :     0.761133  s :     0.761133
      pz      :     0.029383  p :     0.069812
      px      :     0.020807
      py      :     0.019622

 19 H s       :     0.757425  s :     0.757425
      pz      :     0.014851  p :     0.072661
      px      :     0.029728
      py      :     0.028082



                     *******************************
                     * LOEWDIN POPULATION ANALYSIS *
                     *******************************

----------------------
LOEWDIN ATOMIC CHARGES
----------------------
   0 C :   -0.084227
   1 H :    0.040750
   2 H :    0.039973
   3 H :    0.041543
   4 C :    0.098084
   5 O :   -0.117020
   6 O :   -0.168283
   7 C :    0.088880
   8 H :    0.020012
   9 H :    0.022834
  10 C :   -0.070798
  11 H :    0.031009
  12 H :    0.033060
  13 H :    0.026024
  14 O :   -0.146934
  15 H :    0.071915
  16 H :    0.035923
  17 O :   -0.101949
  18 H :    0.085924
  19 H :    0.053280

-------------------------------
LOEWDIN REDUCED ORBITAL CHARGES
-------------------------------
  0 C s       :     2.847753  s :     2.847753
      pz      :     1.065088  p :     3.170326
      px      :     1.041710
      py      :     1.063527
      dz2     :     0.019028  d :     0.066147
      dxz     :     0.008783
      dyz     :     0.007323
      dx2y2   :     0.015362
      dxy     :     0.015652

  1 H s       :     0.879150  s :     0.879150
      pz      :     0.019497  p :     0.080100
      px      :     0.038870
      py      :     0.021733

  2 H s       :     0.893510  s :     0.893510
      pz      :     0.040056  p :     0.066517
      px      :     0.014215
      py      :     0.012246

  3 H s       :     0.892626  s :     0.892626
      pz      :     0.015040  p :     0.065831
      px      :     0.012071
      py      :     0.038720

  4 C s       :     2.855670  s :     2.855670
      pz      :     0.880059  p :     2.758098
      px      :     1.000396
      py      :     0.877643
      dz2     :     0.045004  d :     0.288148
      dxz     :     0.042487
      dyz     :     0.066541
      dx2y2   :     0.080424
      dxy     :     0.053692

  5 O s       :     3.462868  s :     3.462868
      pz      :     1.699479  p :     4.625541
      px      :     1.537517
      py      :     1.388545
      dz2     :     0.003229  d :     0.028610
      dxz     :     0.002986
      dyz     :     0.007607
      dx2y2   :     0.008309
      dxy     :     0.006480

  6 O s       :     3.542773  s :     3.542773
      pz      :     1.420100  p :     4.593499
      px      :     1.521018
      py      :     1.652381
      dz2     :     0.005500  d :     0.032010
      dxz     :     0.011193
      dyz     :     0.004782
      dx2y2   :     0.004716
      dxy     :     0.005820

  7 C s       :     2.851852  s :     2.851852
      pz      :     1.058119  p :     2.928568
      px      :     0.893512
      py      :     0.976937
      dz2     :     0.025754  d :     0.130700
      dxz     :     0.015096
      dyz     :     0.031997
      dx2y2   :     0.017985
      dxy     :     0.039867

  8 H s       :     0.916730  s :     0.916730
      pz      :     0.031527  p :     0.063258
      px      :     0.010373
      py      :     0.021359

  9 H s       :     0.908845  s :     0.908845
      pz      :     0.013031  p :     0.068321
      px      :     0.030776
      py      :     0.024514

 10 C s       :     2.845461  s :     2.845461
      pz      :     1.035211  p :     3.155362
      px      :     1.068087
      py      :     1.052065
      dz2     :     0.018568  d :     0.069974
      dxz     :     0.003874
      dyz     :     0.021882
      dx2y2   :     0.005106
      dxy     :     0.020544

 11 H s       :     0.903466  s :     0.903466
      pz      :     0.030610  p :     0.065526
      px      :     0.012341
      py      :     0.022575

 12 H s       :     0.902637  s :     0.902637
      pz      :     0.013064  p :     0.064303
      px      :     0.028461
      py      :     0.022778

 13 H s       :     0.906914  s :     0.906914
      pz      :     0.012542  p :     0.067061
      px      :     0.033487
      py      :     0.021033

 14 O s       :     3.437069  s :     3.437069
      pz      :     1.312953  p :     4.691432
      px      :     1.759877
      py      :     1.618602
      dz2     :     0.006962  d :     0.018433
      dxz     :     0.004002
      dyz     :     0.002516
      dx2y2   :     0.000955
      dxy     :     0.003999

 15 H s       :     0.751873  s :     0.751873
      pz      :     0.081371  p :     0.176212
      px      :     0.052390
      py      :     0.042451

 16 H s       :     0.760595  s :     0.760595
      pz      :     0.046572  p :     0.203482
      px      :     0.067727
      py      :     0.089183

 17 O s       :     3.419437  s :     3.419437
      pz      :     1.499363  p :     4.664647
      px      :     1.546368
      py      :     1.618916
      dz2     :     0.006845  d :     0.017866
      dxz     :     0.003618
      dyz     :     0.002537
      dx2y2   :     0.000072
      dxy     :     0.004793

 18 H s       :     0.738607  s :     0.738607
      pz      :     0.083117  p :     0.175470
      px      :     0.046085
      py      :     0.046268

 19 H s       :     0.747084  s :     0.747084
      pz      :     0.036688  p :     0.199636
      px      :     0.084285
      py      :     0.078663



                      *****************************
                      * MAYER POPULATION ANALYSIS *
                      *****************************

  NA   - Mulliken gross atomic population
  ZA   - Total nuclear charge
  QA   - Mulliken gross atomic charge
  VA   - Mayer's total valence
  BVA  - Mayer's bonded valence
  FA   - Mayer's free valence

  ATOM       NA         ZA         QA         VA         BVA        FA
  0 C      5.9708     6.0000     0.0292     3.8059     3.8059     0.0000
  1 H      0.9699     1.0000     0.0301     1.1531     1.1531     0.0000
  2 H      0.9707     1.0000     0.0293     1.0005     1.0005     0.0000
  3 H      0.9654     1.0000     0.0346     1.0094     1.0094    -0.0000
  4 C      5.8627     6.0000     0.1373     4.3135     4.3135     0.0000
  5 O      8.3707     8.0000    -0.3707     2.1203     2.1203     0.0000
  6 O      8.2213     8.0000    -0.2213     2.2692     2.2692     0.0000
  7 C      5.8206     6.0000     0.1794     4.0054     4.0054     0.0000
  8 H      0.9836     1.0000     0.0164     0.9809     0.9809     0.0000
  9 H      0.9672     1.0000     0.0328     1.0085     1.0085     0.0000
 10 C      6.0346     6.0000    -0.0346     4.0081     4.0081    -0.0000
 11 H      0.9659     1.0000     0.0341     1.0032     1.0032    -0.0000
 12 H      0.9796     1.0000     0.0204     0.9895     0.9895    -0.0000
 13 H      0.9721     1.0000     0.0279     1.0346     1.0346    -0.0000
 14 O      8.2842     8.0000    -0.2842     2.1240     2.1240     0.0000
 15 H      0.8501     1.0000     0.1499     1.0078     1.0078     0.0000
 16 H      0.8639     1.0000     0.1361     1.1025     1.1025    -0.0000
 17 O      8.2857     8.0000    -0.2857     2.1485     2.1485    -0.0000
 18 H      0.8309     1.0000     0.1691     1.0047     1.0047     0.0000
 19 H      0.8301     1.0000     0.1699     1.0555     1.0555     0.0000

  Mayer bond orders larger than 0.100000
B(  0-C ,  1-H ) :   0.8853 B(  0-C ,  2-H ) :   0.9437 B(  0-C ,  3-H ) :   0.9515 
B(  0-C ,  4-C ) :   1.0474 B(  1-H , 14-O ) :   0.1999 B(  4-C ,  5-O ) :   1.0587 
B(  4-C ,  6-O ) :   2.0792 B(  5-O ,  7-C ) :   0.8654 B(  5-O , 19-H ) :   0.1053 
B(  7-C ,  8-H ) :   0.9586 B(  7-C ,  9-H ) :   0.9433 B(  7-C , 10-C ) :   1.1256 
B( 10-C , 11-H ) :   0.9640 B( 10-C , 12-H ) :   0.9590 B( 10-C , 13-H ) :   0.9585 
B( 14-O , 15-H ) :   1.0012 B( 14-O , 16-H ) :   0.9289 B( 16-H , 17-O ) :   0.1659 
B( 17-O , 18-H ) :   0.9888 B( 17-O , 19-H ) :   0.9239 

-------
TIMINGS
-------

Total SCF time: 0 days 0 hours 0 min 13 sec 

Total time                  ....      13.629 sec
Sum of individual times     ....      12.890 sec  ( 94.6%)

SCF preparation             ....       0.194 sec  (  1.4%)
Fock matrix formation       ....      12.378 sec  ( 90.8%)
  Startup                   ....       0.006 sec  (  0.0% of F)
  Split-RI-J                ....       1.143 sec  (  9.2% of F)
  Chain of spheres X        ....       9.589 sec  ( 77.5% of F)
  XC integration            ....       2.152 sec  ( 17.4% of F)
    XC Preparation          ....       0.000 sec  (  0.0% of XC)
    Basis function eval.    ....       0.671 sec  ( 31.2% of XC)
    Density eval.           ....       0.371 sec  ( 17.3% of XC)
    XC-Functional eval.     ....       0.117 sec  (  5.4% of XC)
    XC-Potential eval.      ....       0.392 sec  ( 18.2% of XC)
Diagonalization             ....       0.000 sec  (  0.0%)
Density matrix formation    ....       0.040 sec  (  0.3%)
Total Energy calculation    ....       0.020 sec  (  0.1%)
Population analysis         ....       0.020 sec  (  0.1%)
Orbital Transformation      ....       0.026 sec  (  0.2%)
Orbital Orthonormalization  ....       0.000 sec  (  0.0%)
DIIS solution               ....       0.123 sec  (  0.9%)
SOSCF solution              ....       0.090 sec  (  0.7%)
Finished LeanSCF after  13.6 sec

Maximum memory used throughout the entire LEANSCF-calculation: 15.6 MB


-------------------------------------------------------------------------------
                          DFT DISPERSION CORRECTION                            
                                                                               
                              DFTD3 V3.1  Rev 1                                
                          USING Becke-Johnson damping                          
-------------------------------------------------------------------------------
The B3LYP functional is recognized
Active option DFTDOPT                   ...         4   

molecular C6(AA) [au] = 2693.946527 


            DFT-D V3
 parameters
 s6 scaling factor         :     1.0000 
 a1 scaling factor         :     0.3981 
 s8 scaling factor         :     1.9889 
 a2 scaling factor         :     4.4211 
 ad hoc parameters k1-k3   :    16.0000     1.3333    -4.0000 

 Edisp/kcal,au: -14.704261971448  -0.023432730518 
 E6   /kcal   :  -7.476758964 
 E8   /kcal   :  -7.227503008 
 % E8         :  49.152436360 

-------------------------   ----------------
Dispersion correction           -0.023432731
-------------------------   ----------------


-------------------------   --------------------
FINAL SINGLE POINT ENERGY      -460.001296077117
-------------------------   --------------------



           ************************************************************
           *        Program running with 6 parallel MPI-processes     *
           *              working on a common directory               *
           ************************************************************
------------------------------------------------------------------------------
                         ORCA SCF GRADIENT CALCULATION
------------------------------------------------------------------------------

Nuc. rep. gradient        (SHARK) ... done (  0.0 sec)
HCore & Overlap gradient  (SHARK) ... done (  0.1 sec)
Split-RIJ-J gradient      (SHARK) ... done (  0.4 sec)
done (  5.8 sec)
XC gradient                       ... done (  1.4 sec)
Dispersion correction             ... done (  0.1 sec)

-------------------
DISPERSION GRADIENT
-------------------

   1   C   :   -0.000063332    0.000613887   -0.000145969
   2   H   :   -0.000164152    0.000249254   -0.000010756
   3   H   :   -0.000090017    0.000224065   -0.000169194
   4   H   :   -0.000064367    0.000197901   -0.000018690
   5   C   :    0.000147220    0.000668112   -0.000086439
   6   O   :    0.000247324    0.000082717   -0.000205720
   7   O   :    0.000244807    0.000470915    0.000189047
   8   C   :    0.000436349   -0.000159050   -0.000069685
   9   H   :    0.000210356   -0.000134693   -0.000195873
  10   H   :    0.000230580   -0.000003816   -0.000073812
  11   C   :    0.000363228   -0.000440470    0.000276970
  12   H   :    0.000124998   -0.000181314    0.000286171
  13   H   :    0.000103789   -0.000161006    0.000116508
  14   H   :    0.000083950   -0.000274426    0.000170080
  15   O   :   -0.000470778   -0.000030552    0.000246452
  16   H   :   -0.000218313   -0.000013100    0.000193895
  17   H   :   -0.000291785   -0.000108256    0.000088874
  18   O   :   -0.000451849   -0.000499728   -0.000225109
  19   H   :   -0.000155360   -0.000207298   -0.000162690
  20   H   :   -0.000222647   -0.000293140   -0.000204061

Difference to translation invariance:
           :   -0.0000000000    0.0000000000    0.0000000000

Difference to rotation invariance:
           :    0.0000000000   -0.0000000000   -0.0000000000

Norm of the Dispersion gradient    ...    0.0019617756
RMS gradient                       ...    0.0002532641
MAX gradient                       ...    0.0006681118

------------------
CARTESIAN GRADIENT
------------------

   1   C   :    0.000115292   -0.000012717   -0.000065357
   2   H   :   -0.000030852    0.000026600    0.000062260
   3   H   :    0.000003259   -0.000047391   -0.000000062
   4   H   :    0.000064391   -0.000037172    0.000016959
   5   C   :   -0.000118752   -0.000005526    0.000014762
   6   O   :    0.000184988   -0.000115510    0.000006290
   7   O   :   -0.000128032   -0.000025432    0.000031040
   8   C   :   -0.000081506    0.000101403    0.000011383
   9   H   :    0.000032523   -0.000074190   -0.000009404
  10   H   :    0.000011306   -0.000001589    0.000020343
  11   C   :    0.000065223    0.000117443   -0.000167493
  12   H   :   -0.000029492    0.000009340    0.000032372
  13   H   :    0.000000895   -0.000031655   -0.000038792
  14   H   :    0.000003569   -0.000045914    0.000040862
  15   O   :   -0.000184446    0.000097484   -0.000254383
  16   H   :    0.000007298   -0.000038869   -0.000013220
  17   H   :    0.000276370   -0.000039048    0.000393243
  18   O   :   -0.000093036   -0.000040148   -0.000232772
  19   H   :    0.000146165   -0.000030909    0.000063397
  20   H   :   -0.000245165    0.000193799    0.000088572

Difference to translation invariance:
           :    0.0000000000    0.0000000001    0.0000000001

Difference to rotation invariance:
           :    0.0000953960    0.0000072401    0.0000586563

Norm of the Cartesian gradient     ...    0.0008536736
RMS gradient                       ...    0.0001102088
MAX gradient                       ...    0.0003932428

-------
TIMINGS
-------

Total SCF gradient time     ....        7.666 sec

Densities                   ....       0.001 sec  (  0.0%)
One electron gradient       ....       0.078 sec  (  1.0%)
RI-J Coulomb gradient       ....       0.387 sec  (  5.0%)
COSX gradient               ....       5.769 sec  ( 75.3%)
XC gradient                 ....       1.379 sec  ( 18.0%)

Maximum memory used throughout the entire SCFGRAD-calculation: 30.2 MB


           ************************************************************
           *        Program running with 6 parallel MPI-processes     *
           *              working on a common directory               *
           ************************************************************

------------------------------------------------------------------------------
                              ORCA PROPERTY CALCULATIONS
------------------------------------------------------------------------------

GBWName                                 ... orca.gbw
Number of atoms                         ...     20
Number of basis functions               ...    172
Max core memory                         ...   4096 MB

Electric properties:
Dipole moment                           ... YES
Quadrupole moment                       ...  NO
Static polarizability (Dipole/Dipole)   ...  NO
Static polarizability (Dipole/Quad.)    ...  NO
Static polarizability (Quad./Quad.)     ...  NO
Static polarizability (Velocity)        ...  NO
Static hyperpolarizability              ...  NO

Atomic electric properties:
Dipole moment                           ...  NO
Quadrupole moment                       ...  NO
Static polarizability                   ...  NO

Choice of electric origin               ... Center of mass
Position of electric origin             ...     0.014202     0.070019     0.015423

General magnetic properties:
Magnetizability                         ...  NO

EPR properties:
g-Tensor (aka g-matrix)                 ...  NO
Zero-Field splitting spin-orbit         ...  NO
Zero-field splitting spin-spin          ...  NO
Hyperfine couplings                     ...  NO (   0 nuclei)
Quadrupole couplings                    ...  NO (   0 nuclei)
Contact density                         ...  NO (   0 nuclei)

NMR properties:
Chemical shifts                         ...  NO (   0 nuclei)
Spin-rotation constants                 ...  NO (   0 nuclei)
Spin-spin couplings                     ...  NO (   0 nuclei,    0 pairs)

Choice of magnetic origin               ... GIAO
Position of magnetic origin             ...     0.000000     0.000000     0.000000

Properties with geometric perturbations:
SCF Hessian                             ...  NO
IR spectrum                             ...  NO
VCD spectrum                            ...  NO
X-ray spectroscopy properties:
SCF XES/XAS/RIXS spectra                ...  NO

SCF SOC stabilization energy            ...  NO
Diagonal Born-Oppenheimer correction    ...  NO

-------------
DIPOLE MOMENT
-------------

Method             : SCF
Type of density    : Electron Density
Multiplicity       :   1
Irrep              :   0
Energy             :  -459.9778633465990652 Eh
Basis              : AO
                                X                 Y                 Z
Electronic contribution:      1.998149530       3.844004576      -0.704356929
Nuclear contribution   :     -1.552038974      -4.669453334      -0.034489865
                        -----------------------------------------
Total Dipole Moment    :      0.446110556      -0.825448758      -0.738846793
                        -----------------------------------------
Magnitude (a.u.)       :      1.194267501
Magnitude (Debye)      :      3.035586747



--------------------
Rotational spectrum 
--------------------
 
Rotational constants in cm-1:             0.059460             0.040878             0.029086 
Rotational constants in MHz :          1782.569929          1225.500217           871.982227 

Dipole components along the rotational axes: 
x,y,z [a.u.] :     0.415183    -0.870547    -0.704305 
x,y,z [Debye]:     1.055312    -2.212754    -1.790202 

 

Dipole moment calculation done in   0.0 sec 

Maximum memory used throughout the entire PROP-calculation: 8.5 MB

--------------------------------
SUGGESTED CITATIONS FOR THIS RUN
--------------------------------

Below you find a list of papers that are relevant to this ORCA run
We neither can nor want to force you to cite these papers, but we appreciate if you do
You receive ORCA, which is the product of decades of hard work by many enthusiastic individuals, for free
The only thing we kindly ask in return is that you cite our papers,
We deeply appreciate it, if you show your appreciation for ORCA by not just citing the generic ORCA reference.

Please note that relegating all ORCA citations to the supporting information does *not* help us.
SI sections are not indexed - citations you put there will not count into any citation statistics
But we need these citations in order to attract the funding resources that allow us to do what we are doing

Therefore, if you are a happy ORCA user, please consider citing a few of the papers listed below in the main body of your paper

In addition to the list printed below, the program has created the file orca.bibtex that contains the list in bibtex format
You can import this file easily into all common literature databanks and citation aid programs


List of essential papers. We consider these as the minimum necessary citations

  1. Neese, F.
     Software update: the ORCA program system, version 6.0
     WIRES Comput. Molec. Sci. 2025 15(1), e70019
     doi.org/10.1002/wcms.7019

List of papers to cite with high priority. The work reported in these papers was absolutely
necessary for this run to complete.
Our perspective: the developers of density functionals and basis sets usually get cited in chemistry papers
Good! But without the algorithms to do something with them, the functionals or basis sets would not do anything.
Hence, in our opinion, the algorithm design and method developments papers are equally worthy of getting cited

  1. Neese, F.
     An improvement of the resolution of the identity approximation for the formation of the Coulomb matrix
     J. Comp. Chem. 2003 24(14), 1740-1747
     doi.org/10.1002/jcc.10318
  2. Neese, F.; Wennmohs, F.; Hansen, A.; Becker, U.
     Efficient, approximate and parallel Hartree-Fock and hybrid DFT calculations. A 'chain-of-spheres' algorithm for the Hartree-Fock exchange
     Chem. Phys. 2009 356(1-3), 98-109
     doi.org/10.1016/j.chemphys.2008.10.036
  3. Grimme, S.; Antony, J.; Ehrlich, S.; Krieg, H.
     A consistent and accurate ab initio parametrization of density functional dispersion correction (DFT-D) for the 94 elements H-Pu
     J. Chem. Phys. 2010 132 , 154104
     doi.org/10.1063/1.3382344
  4. Grimme, S.; Ehrlich, S.; Goerigk, L.
     Effect of the damping function in dispersion corrected density functional theory
     J. Comput. Chem. 2011 32(7), 1456-1465
     doi.org/10.1002/jcc.21759
  5. Helmich-Paris, B.; de Souza, B.; Neese, F.; Izsák, R.
     An improved chain of spheres for exchange algorithm
     J. Chem. Phys. 2021 155(10), 104109
     doi.org/10.1063/5.0058766
  6. Neese, F.
     The SHARK Integral Generation and Digestion System
     J. Comp. Chem. 2022 44(3), 381
     doi.org/10.1002/jcc.26942

List of suggested additional citations. These are papers that are important in the 'surrounding' of 
of this run, or papers that preceded the highly important papers. If you like your results we are grateful for a citation.

  1. Izsak, R.; Neese, F.
     An overlap fitted chain of spheres exchange method
     J. Chem. Phys. 2011 135 , 144105
     doi.org/10.1063/1.3646921
  2. Izsak, R.; Hansen, A.; Neese, F.
     The resolution of identity and chain of spheres approximations for the LPNO-CCSD singles Fock term
     Molec. Phys. 2012 110 , 2413-2417
     doi.org/10.1080/00268976.2012.687466
  3. Neese, F.
     The ORCA program system
     WIRES Comput. Molec. Sci. 2012 2(1), 73-78
     doi.org/10.1002/wcms.81
  4. Izsak, R.; Neese, F.; Klopper, W.
     Robust fitting techniques in the chain of spheres approximation to the Fock exchange: The role of the complementary space
     J. Chem. Phys. 2013 139 , 
     doi.org/10.1063/1.4819264
  5. Neese, F.
     Software update: the ORCA program system, version 4.0
     WIRES Comput. Molec. Sci. 2018 8(1), 1-6
     doi.org/10.1002/wcms.1327
  6. Neese, F.; Wennmohs, F.; Becker, U.; Riplinger, C.
     The ORCA quantum chemistry program package
     J. Chem. Phys. 2020 152(22), 224108
     doi.org/10.1063/5.0004608
  7. Neese, F.
     Software update: The ORCA program system—Version 5.0
     WIRES Comput. Molec. Sci. 2022 12(1), e1606
     doi.org/10.1002/wcms.1606

List of optional additional citations

  1. Neese, F.
     Approximate second-order SCF convergence for spin unrestricted wavefunctions
     Chem. Phys. Lett. 2000 325(1-3), 93-98
     doi.org/10.1016/s0009-2614(00)00662-x

Timings for individual modules:

Sum of individual times          ...       25.359 sec (=   0.423 min)
Startup calculation              ...        1.935 sec (=   0.032 min)   7.6 %
SCF iterations                   ...       14.820 sec (=   0.247 min)  58.4 %
Property calculations            ...        0.457 sec (=   0.008 min)   1.8 %
SCF Gradient evaluation          ...        8.146 sec (=   0.136 min)  32.1 %
                             ****ORCA TERMINATED NORMALLY****
TOTAL RUN TIME: 0 days 0 hours 0 minutes 25 seconds 930 msec
