
                                 *****************
                                 * O   R   C   A *
                                 *****************

                                            #,                                       
                                            ###                                      
                                            ####                                     
                                            #####                                    
                                            ######                                   
                                           ########,                                 
                                     ,,################,,,,,                         
                               ,,#################################,,                 
                          ,,##########################################,,             
                       ,#########################################, ''#####,          
                    ,#############################################,,   '####,        
                  ,##################################################,,,,####,       
                ,###########''''           ''''###############################       
              ,#####''   ,,,,##########,,,,          '''####'''          '####       
            ,##' ,,,,###########################,,,                        '##       
           ' ,,###''''                  '''############,,,                           
         ,,##''                                '''############,,,,        ,,,,,,###''
      ,#''                                            '''#######################'''  
     '                                                          ''''####''''         
             ,#######,   #######,   ,#######,      ##                                
            ,#'     '#,  ##    ##  ,#'     '#,    #''#        ,####,    ,#,          
            ##       ##  ##   ,#'  ##            #'  '#       #'       ,# #          
            ##       ##  #######   ##           ,######,      #####,      #          
            '#,     ,#'  ##    ##  '#,     ,#' ,#      #,     #,   #      #          
             '#######'   ##     ##  '#######'  #'      '#     '####' #    #          



                #########################################################
                #                        -***-                          #
                #          Department of theory and spectroscopy        #
                #                                                       #
                #                      Frank Neese                      #
                #                                                       #
                #     Directorship, Architecture, Infrastructure        #
                #                    SHARK, DRIVERS                     #
                #        Core code/Algorithms in most modules           #
                #                                                       #
                #        Max Planck Institute fuer Kohlenforschung      #
                #                Kaiser Wilhelm Platz 1                 #
                #                 D-45470 Muelheim/Ruhr                 #
                #                      Germany                          #
                #                                                       #
                #                  All rights reserved                  #
                #                        -***-                          #
                #########################################################


                         Program Version 6.1.0  -  RELEASE   -
                                (GIT: $679e74b$)
                          ($2025-06-10 18:02:51 +0200$)


 With contributions from (in alphabetic order):
[Max-Planck-Institut fuer Kohlenforschung]                               
  Daniel Aravena         : Magnetic Suceptibility                        
  Michael Atanasov       : Ab Initio Ligand Field Theory (pilot matlab implementation)
  Alexander A. Auer      : GIAO ZORA, VPT2 properties, NMR spectrum      
  Ute Becker             : All parallelization in ORCA, NUMFREQ, NUMCALC 
  Giovanni Bistoni       : ED, misc. LED, open-shell LED, HFLD           
  Dmytro Bykov           : pre 5.0 version of the SCF Hessian            
  Marcos Casanova-Páez   : Triplet and SCS-CIS(D). UHF-(DLPNO)-IP/EA/STEOM-CCSD. UHF-CVS-IP/STEOM-CCSD   
  Vijay G. Chilkuri      : MRCI spin determinant printing, contributions to CSF-ICE 
  Pauline Colinet        : FMM embedding                                 
  Dipayan Datta          : RHF DLPNO-CCSD density                        
  Achintya Kumar Dutta   : EOM-CC, STEOM-CC                              
  Nicolas Foglia         : Exact transition moments, OPA infrastructure, MCD improvements    
  Dmitry Ganyushin       : Spin-Orbit,Spin-Spin,Magnetic field MRCI      
  Miquel Garcia-Rates    : C-PCM and meta-GGA Hessian, CCSD/C-PCM, Gaussian charge scheme 
  Tiago L. C. Gouveia    : GS-ROHF, GS-ROCIS                             
  Yang Guo               : DLPNO-NEVPT2, F12-NEVPT2, CIM, IAO-localization        
  Andreas Hansen         : Spin unrestricted coupled pair/coupled cluster methods 
  Ingolf Harden          : AUTO-CI MPn and infrastructure                
  Benjamin Helmich-Paris : MC-RPA, TRAH-(SCF,CASSCF), AVAS, COSX integrals, SCF dyn. polar., MC-PDFT, srDFT 
  Lee Huntington         : MR-EOM, pCC                                   
  Robert Izsak           : Overlap fitted RIJCOSX, COSX-SCS-MP3, EOM     
  Riya Kayal             : Wick's Theorem for AUTO-CI, AUTO-CI UHF-CCSDT 
  Emily Kempfer          : AUTO-CI RHF CISDT and CCSDT, approximate NEVPT4
  Christian Kollmar      : KDIIS, OOCD, Brueckner-CCSD(T), CCSD density, CASPT2, CASPT2-K, improved NEVPT2 
  Axel Koslowski         : Symmetry handling                             
  Simone Kossmann        : meta-GGA functionals, TD-DFT gradient, OOMP2, (MP2 Hessian; deprecated post 5.0) 
  Lucas Lang             : DCDCAS, Hyperfine gauge corrections, ICE-SOC+SSC
  Marvin Lechner         : AUTO-CI (C++ implementation), FIC-MRCC        
  Spencer Leger          : CASSCF response                               
  Dagmar Lenk            : GEPOL surface, SMD, ORCA-2-JSON               
  Dimitrios Liakos       : Extrapolation schemes; Compound Job, Property file
  Dimitrios Manganas     : Further ROCIS development; embedding schemes. LFT, Crystal Embedding 
  Dimitrios Pantazis     : SARC Basis sets                               
  Anastasios Papadopoulos: AUTO-CI, single reference methods and gradients 
  Taras Petrenko         : pre 6.0 DFT Hessian and TD-DFT gradient,  ECA, NRVS 
  Petra Pikulova         : Analytic Raman intensities                    
  Peter Pinski           : DLPNO-MP2, DLPNO-MP2 Gradient                 
  Shashank Vittal Rao    : ES-AILFT, MagRelax                            
  Christoph Reimann      : Effective Core Potentials                     
  Marius Retegan         : Local ZFS, SOC                                
  Christoph Riplinger    : Optimizer, TS searches, QM/MM, DLPNO-CCSD(T), (RO)-DLPNO pert. Triples 
  Michael Roemelt        : Original ROCIS implementation, recursive CI coupling coefficients
  Masaaki Saitow         : Open-shell DLPNO-CCSD energy and density      
  Barbara Sandhoefer     : DKH picture change effects                    
  Yorick L. A. Schmerwitz: GMF and freeze-and-release deltaSCF, NEB S-IDPP initial path                    
  Kantharuban Sivalingam : CASSCF convergence/infrastructure, NEVPT2, NEVPT3, NEVPT4(SD), FIC-MRCI and CEPA variants
  Bernardo de Souza      : ESD, SOC TD-DFT                               
  Georgi L. Stoychev     : AutoAux, RI-MP2 NMR, DLPNO-MP2 response, X2C  
  Van Anh Tran           : RI-MP2 g-tensors                              
  Willem Van den Heuvel  : Paramagnetic NMR                              
  Zikuan Wang            : NOTCH, Electric field optimization            
  Frank Wennmohs         : Technical directorship and infrastructure     
  Hang Xu                : AUTO-CI-Response properties                   
                                                                         
[FACCTs GmbH]                                                            
  Markus Bursch, Nicolas Foglia, Miquel Garcia-Rates, Ingolf Harden, Hagen Neugebauer, Anastasios Papadopoulos, 
  Christoph Riplinger, Bernardo de Souza, Georgi L. Stoychev                                                    
                                                                 
  APM, various basis sets, CI-OPT, improved COSX, DLPNO-Multilevel,           
  DOCKER, DRACO, updates on ESD, Fragmentator, GOAT, IRC, LR-CPCM, L-BFGS, MBIS, meta-GGA TD-DFT gradient, ML-optimized integration grids, 
  MM, NACMEs, nearIR, NEB, NEB-TS, NL-DFT gradient (VV10), 2- and 3-layer-ONIOM, interface openCOSMO-RS, QMMM,   
  Crystal-QMMM, RESP, rigid body optimization, SF, symmetry and pop. for TD-DFT, various functionals, SOLVATOR                                   
                                                                         
[Other institutions]                                                     
  V. Asgeirsson          : NEB                                           
  Christoph Bannwarth    : sTDA-DFT, sTD-DFT, PBEh-3c, B97-3c, D3        
  Giovanni Bistoni       : ETS/NOCV, ADLD/ADEX, COVALED                  
  Martin Brehm           : Molecular dynamics                            
  Ronald Cardenas        : ETS/NOCV                                      
  Martina Colucci        : COVALED                                       
  Sebastian Ehlert       : rSCAN, r2SCAN, r2SCAN-3c, D4, dhf basis sets  
  Marvin Friede          : D4 for Fr, Ra, Ac-Lr                          
  Lars Goerigk           : TD-DFT with DH, B97 family of functionals     
  Stefan Grimme          : VdW corrections, initial TS optimization, DFT functionals, gCP, sTDA/sTD-DF 
  Waldemar Hujo          : DFT-NL                                        
  H. Jonsson             : NEB                                           
  Holger Kruse           : gCP                                           
  Marcel Mueller         : wB97X-3c, vDZP basis set                      
  Hagen Neugebauer       : wr2SCAN, Native XTB                           
  Gianluca Regni         : ADLD/ADEX                                     
  Tobias Risthaus        : pre 6.0 range-separated hybrid DFT and stability analysis
  Lukas Wittmann         : regularized MP2, r2SCAN double-hybrids, wr2SCAN        
                                                                         
We gratefully acknowledge several colleagues who have allowed us to      
interface, adapt or use parts of their codes:                            
  Ed Valeev, F. Pavosevic, A. Kumar             : LibInt (2-el integral package), F12 methods 
  Garnet Chan, S. Sharma, J. Yang, R. Olivares  : DMRG                   
  Ulf Ekstrom                                   : XCFun DFT Library      
  Mihaly Kallay                                 : mrcc  (arbitrary order and MRCC methods)
  Frank Weinhold                                : gennbo (NPA and NBO analysis)           
  Simon Mueller                                 : openCOSMO-RS                            
  Christopher J. Cramer and Donald G. Truhlar   : smd solvation model                     
  S Lehtola, MJT Oliveira, MAL Marques          : LibXC Library                           
  Liviu Ungur et al                             : ANISO software                          


 Your calculation uses the libint2 library for the computation of 2-el integrals
 For citations please refer to: http://libint.valeyev.net

 Your ORCA version has been built with support for libXC version: 7.0.0
 For citations please refer to: https://libxc.gitlab.io

 This ORCA versions uses:
   CBLAS   interface :  Fast vector & matrix operations
   LAPACKE interface :  Fast linear algebra routines
   SCALAPACK package :  Parallel linear algebra routines
   Shared memory     :  Shared parallel matrices
   BLAS/LAPACK       :  OpenBLAS 0.3.29  USE64BITINT DYNAMIC_ARCH NO_AFFINITY Zen SINGLE_THREADED
        Core in use  :  Zen
   Copyright (c) 2011-2014, The OpenBLAS Project


  ***********************************
  * Starting time: Wed Sep 10 13:37:29 2025
  * Host name:     wyk-Server
  * Process ID:    2305496
  * Working dir.:  /home/wyk/Documents/code/openQDC/MGMR/singlepointcalc/95/react
  ***********************************

Your calculation utilizes the atom-pairwise dispersion correction
with the Becke-Johnson damping scheme (D3BJ)


Warning: RI is on but no J-basis has been assigned. Assigning Def2/J (nothing to worry about!)
================================================================================

----- Orbital basis set information -----
Your calculation utilizes the basis: def2-SVP
   F. Weigend and R. Ahlrichs, Phys. Chem. Chem. Phys. 7, 3297 (2005).

----- AuxJ basis set information -----
Your calculation utilizes the auxiliary basis: def2/J
   H-Rn: F. Weigend, Phys. Chem. Chem. Phys. 8, 1057 (2006).
   Fr-Lr: K. Eichkorn, F. Weigend, O. Treutler, R. Ahlrichs; Theor. Chem. Acc. 97, 119 (1997).

================================================================================
                                        WARNINGS
                       Please study these warnings very carefully!
================================================================================


================================================================================
                                       INPUT FILE
================================================================================
NAME = orca.inp
|  1> ! B3LYP def2-SVP d3 EnGrad 
|  2> %pal nprocs 6 end 
|  3> *xyz 0 1 
|  4> C   2.87672581103468 -0.63246000588192 0.95682677401975
|  5> C   1.69538794147062 -0.16205433240052 0.15577916375915
|  6> H   3.42471930839414 0.20537295932294 1.40569670852848
|  7> H   3.54270888892816 -1.2087157960821 0.29715594863378
|  8> H   2.51783310292336 -1.3116865543608 1.74516711203896
|  9> O   1.5688349406989 1.17753139983417 0.22520867947961
| 10> O   0.45628760805927 1.65755610519038 -0.53021733668141
| 11> H   0.00426460851535 0.81863318330341 -0.80079178113533
| 12> O   0.92660979120429 -0.85031774363815 -0.47392669364051
| 13> C   -2.47624654606499 0.85813100512496 -0.71776013567776
| 14> C   -2.30648214025867 -0.37435887497458 -1.22460152972414
| 15> C   -2.22766504093429 -1.67144963358331 -0.47587970760742
| 16> H   -2.20910497124719 -0.4596086077049 -2.31438635656791
| 17> H   -2.40893973528184 -1.55338178615702 0.60230918984155
| 18> H   -1.22875518413529 -2.12109280634693 -0.60021536451611
| 19> H   -2.96406001402141 -2.39416388554881 -0.86808653903893
| 20> C   -2.61597979122389 1.2446969945432 0.72548557002201
| 21> H   -2.50638191308567 1.69422042706136 -1.42810309760528
| 22> H   -2.63736403232328 0.37738676451959 1.40099259949862
| 23> H   -3.53896749350023 1.82749634530392 0.88982210223526
| 24> H   -1.77245513915187 1.88973784247512 1.02549669413762
| 25> *
| 26> 
| 27>                          ****END OF INPUT****
================================================================================

                     *******************************
                     * Energy+Gradient Calculation *
                     *******************************

---------------------------------
CARTESIAN COORDINATES (ANGSTROEM)
---------------------------------
  C      2.876726   -0.632460    0.956827
  C      1.695388   -0.162054    0.155779
  H      3.424719    0.205373    1.405697
  H      3.542709   -1.208716    0.297156
  H      2.517833   -1.311687    1.745167
  O      1.568835    1.177531    0.225209
  O      0.456288    1.657556   -0.530217
  H      0.004265    0.818633   -0.800792
  O      0.926610   -0.850318   -0.473927
  C     -2.476247    0.858131   -0.717760
  C     -2.306482   -0.374359   -1.224602
  C     -2.227665   -1.671450   -0.475880
  H     -2.209105   -0.459609   -2.314386
  H     -2.408940   -1.553382    0.602309
  H     -1.228755   -2.121093   -0.600215
  H     -2.964060   -2.394164   -0.868087
  C     -2.615980    1.244697    0.725486
  H     -2.506382    1.694220   -1.428103
  H     -2.637364    0.377387    1.400993
  H     -3.538967    1.827496    0.889822
  H     -1.772455    1.889738    1.025497

----------------------------
CARTESIAN COORDINATES (A.U.)
----------------------------
  NO LB      ZA    FRAG     MASS         X           Y           Z
   0 C     6.0000    0    12.011    5.436224   -1.195176    1.808141
   1 C     6.0000    0    12.011    3.203819   -0.306238    0.294380
   2 H     1.0000    0     1.008    6.471782    0.388099    2.656382
   3 H     1.0000    0     1.008    6.694750   -2.284142    0.561543
   4 H     1.0000    0     1.008    4.758015   -2.478728    3.297888
   5 O     8.0000    0    15.999    2.964668    2.225212    0.425583
   6 O     8.0000    0    15.999    0.862259    3.132327   -1.001966
   7 H     1.0000    0     1.008    0.008059    1.546993   -1.513277
   8 O     8.0000    0    15.999    1.751039   -1.606868   -0.895592
   9 C     6.0000    0    12.011   -4.679428    1.621633   -1.356370
  10 C     6.0000    0    12.011   -4.358620   -0.707436   -2.314162
  11 C     6.0000    0    12.011   -4.209677   -3.158582   -0.899282
  12 H     1.0000    0     1.008   -4.174603   -0.868534   -4.373556
  13 H     1.0000    0     1.008   -4.552236   -2.935466    1.138199
  14 H     1.0000    0     1.008   -2.322011   -4.008285   -1.134243
  15 H     1.0000    0     1.008   -5.601262   -4.524314   -1.640446
  16 C     6.0000    0    12.011   -4.943485    2.352136    1.370969
  17 H     1.0000    0     1.008   -4.736375    3.201613   -2.698724
  18 H     1.0000    0     1.008   -4.983896    0.713158    2.647492
  19 H     1.0000    0     1.008   -6.687679    3.453468    1.681520
  20 H     1.0000    0     1.008   -3.349455    3.571087    1.937908

--------------------------------
INTERNAL COORDINATES (ANGSTROEM)
--------------------------------
 C      0   0   0     0.000000000000     0.00000000     0.00000000
 C      1   0   0     1.502836629050     0.00000000     0.00000000
 H      1   2   0     1.097153211196   111.81809197     0.00000000
 H      1   2   3     1.100349850568   108.67135643   238.32150481
 H      1   2   3     1.100742099060   108.57817666   121.47496503
 O      2   1   3     1.347340362961   110.95148749   357.73943238
 O      6   2   1     1.427884361918   112.34398670   179.80848406
 H      7   6   2     0.990619498584   102.43530640     7.70150477
 O      2   1   3     1.208824153638   126.82453326   178.27997191
 C      8   7   6     2.482214720783   115.68212643   139.87664998
 C     10   8   7     1.343405916596    81.17014370   176.48622989
 C     11  10   8     1.499746958033   127.71663117    93.25073198
 H     11  10   8     1.097442845343   117.20192574   273.45432935
 H     12  11  10     1.099678057428   112.82734526     4.76005128
 H     12  11  10     1.102478680248   110.12383930   244.41604956
 H     12  11  10     1.103820476800   110.72113605   125.91308148
 C     10   8   7     1.500638800977    97.43042959   303.58961538
 H     10   8   7     1.097515733545    91.02626876    59.03619639
 H     17  10   8     1.099542662994   112.92175868   271.43888908
 H     17  10   8     1.103887620014   110.91817671   150.07498390
 H     17  10   8     1.103457388732   109.93094167    32.11089007

---------------------------
INTERNAL COORDINATES (A.U.)
---------------------------
 C      0   0   0     0.000000000000     0.00000000     0.00000000
 C      1   0   0     2.839949652930     0.00000000     0.00000000
 H      1   2   0     2.073319096113   111.81809197     0.00000000
 H      1   2   3     2.079359869075   108.67135643   238.32150481
 H      1   2   3     2.080101111300   108.57817666   121.47496503
 O      2   1   3     2.546104295175   110.95148749   357.73943238
 O      6   2   1     2.698310394933   112.34398670   179.80848406
 H      7   6   2     1.871999555247   102.43530640     7.70150477
 O      2   1   3     2.284346594445   126.82453326   178.27997191
 C      8   7   6     4.690706027868   115.68212643   139.87664998
 C     10   8   7     2.538669269056    81.17014370   176.48622989
 C     11  10   8     2.834111020863   127.71663117    93.25073198
 H     11  10   8     2.073866425329   117.20192574   273.45432935
 H     12  11  10     2.078090364022   112.82734526     4.76005128
 H     12  11  10     2.083382774156   110.12383930   244.41604956
 H     12  11  10     2.085918402167   110.72113605   125.91308148
 C     10   8   7     2.835796359783    97.43042959   303.58961538
 H     10   8   7     2.074004164070    91.02626876    59.03619639
 H     17  10   8     2.077834505621   112.92175868   271.43888908
 H     17  10   8     2.086045284453   110.91817671   150.07498390
 H     17  10   8     2.085232265155   109.93094167    32.11089007

---------------------
BASIS SET INFORMATION
---------------------
There are 3 groups of distinct atoms

 Group   1 Type C   : 7s4p1d contracted to 3s2p1d pattern {511/31/1}
 Group   2 Type H   : 4s1p contracted to 2s1p pattern {31/1}
 Group   3 Type O   : 7s4p1d contracted to 3s2p1d pattern {511/31/1}

Atom   0C    basis set group =>   1
Atom   1C    basis set group =>   1
Atom   2H    basis set group =>   2
Atom   3H    basis set group =>   2
Atom   4H    basis set group =>   2
Atom   5O    basis set group =>   3
Atom   6O    basis set group =>   3
Atom   7H    basis set group =>   2
Atom   8O    basis set group =>   3
Atom   9C    basis set group =>   1
Atom  10C    basis set group =>   1
Atom  11C    basis set group =>   1
Atom  12H    basis set group =>   2
Atom  13H    basis set group =>   2
Atom  14H    basis set group =>   2
Atom  15H    basis set group =>   2
Atom  16C    basis set group =>   1
Atom  17H    basis set group =>   2
Atom  18H    basis set group =>   2
Atom  19H    basis set group =>   2
Atom  20H    basis set group =>   2
---------------------------------
AUXILIARY/J BASIS SET INFORMATION
---------------------------------
There are 3 groups of distinct atoms

 Group   1 Type C   : 12s5p4d2f1g contracted to 6s4p3d1f1g pattern {711111/2111/211/2/1}
 Group   2 Type H   : 5s2p1d contracted to 3s1p1d pattern {311/2/1}
 Group   3 Type O   : 12s5p4d2f1g contracted to 6s4p3d1f1g pattern {711111/2111/211/2/1}

Atom   0C    basis set group =>   1
Atom   1C    basis set group =>   1
Atom   2H    basis set group =>   2
Atom   3H    basis set group =>   2
Atom   4H    basis set group =>   2
Atom   5O    basis set group =>   3
Atom   6O    basis set group =>   3
Atom   7H    basis set group =>   2
Atom   8O    basis set group =>   3
Atom   9C    basis set group =>   1
Atom  10C    basis set group =>   1
Atom  11C    basis set group =>   1
Atom  12H    basis set group =>   2
Atom  13H    basis set group =>   2
Atom  14H    basis set group =>   2
Atom  15H    basis set group =>   2
Atom  16C    basis set group =>   1
Atom  17H    basis set group =>   2
Atom  18H    basis set group =>   2
Atom  19H    basis set group =>   2
Atom  20H    basis set group =>   2


           ************************************************************
           *        Program running with 6 parallel MPI-processes     *
           *              working on a common directory               *
           ************************************************************
------------------------------------------------------------------------------
                             ORCA STARTUP CALCULATIONS
                           -- RI-GTO INTEGRALS CHOSEN --
------------------------------------------------------------------------------
------------------------------------------------------------------------------
                   ___                                                        
                  /   \      - P O W E R E D   B Y -                         
                 /     \                                                     
                 |  |  |   _    _      __       _____    __    __             
                 |  |  |  | |  | |    /  \     |  _  \  |  |  /  |          
                  \  \/   | |  | |   /    \    | | | |  |  | /  /          
                 / \  \   | |__| |  /  /\  \   | |_| |  |  |/  /          
                |  |  |   |  __  | /  /__\  \  |    /   |      \           
                |  |  |   | |  | | |   __   |  |    \   |  |\   \          
                \     /   | |  | | |  |  |  |  | |\  \  |  | \   \       
                 \___/    |_|  |_| |__|  |__|  |_| \__\ |__|  \__/        
                                                                              
                      - O R C A' S   B I G   F R I E N D -                    
                                      &                                       
                       - I N T E G R A L  F E E D E R -                       
                                                                              
 v1 FN, 2020, v2 2021, v3 2022-2024                                           
------------------------------------------------------------------------------


----------------------
SHARK INTEGRAL PACKAGE
----------------------

Number of atoms                             ...     21
Number of basis functions                   ...    186
Number of shells                            ...     90
Maximum angular momentum                    ...      2
Integral batch strategy                     ... SHARK/LIBINT Hybrid
RI-J (if used) integral strategy            ... SPLIT-RIJ (Revised 2003 algorithm where possible)
Printlevel                                  ...      1
Contraction scheme used                     ... SEGMENTED contraction
Prescreening option                         ... SCHWARTZ
   Thresh                                   ... 2.500e-11
   Tcut                                     ... 2.500e-12
   Tpresel                                  ... 2.500e-12 
Coulomb Range Separation                    ... NOT USED
Exchange Range Separation                   ... NOT USED
Multipole approximations                    ... NOT USED
Finite Nucleus Model                        ... NOT USED
CABS basis                                  ... NOT available
Auxiliary Coulomb fitting basis             ... AVAILABLE
   # of basis functions in Aux-J            ...    573
   # of shells in Aux-J                     ...    195
   Maximum angular momentum in Aux-J        ...      4
Auxiliary J/K fitting basis                 ... NOT available
Auxiliary Correlation fitting basis         ... NOT available
Auxiliary 'external' fitting basis          ... NOT available

Checking pre-screening integrals            ... done (  0.0 sec) Dimension = 90
   => SHARK Basis and OBASIS are compatible. Storing Pre-screening
Shell pair information
Shell pair cut-off parameter TPreSel        ...   2.5e-12
Total number of shell pairs                 ...      4095
Shell pairs after pre-screening             ...      3610
Total number of primitive shell pairs       ...     14349
Primitive shell pairs kept                  ...      8931
          la=0 lb=0:   1197 shell pairs
          la=1 lb=0:   1351 shell pairs
          la=1 lb=1:    404 shell pairs
          la=2 lb=0:    392 shell pairs
          la=2 lb=1:    227 shell pairs
          la=2 lb=2:     39 shell pairs

Checking whether 4 symmetric matrices of dimension 186 fit in memory
:Max Core in MB      =   4096.00
 MB in use           =      7.88
 MB left             =   4088.12
 MB needed           =      0.53
 Data fit in memory  = YES
Calculating RI/J V-Matrix + Cholesky decomp.... done (  0.0 sec)
Calculating Nuclear repulsion               ... done (  0.0 sec) ENN=    458.735345115788 Eh

Diagonalization of the overlap matrix:
Smallest eigenvalue                        ... 1.599e-03
Time for diagonalization                   ...    0.006 sec
Threshold for overlap eigenvalues          ... 1.000e-07
Number of eigenvalues below threshold      ... 0
Time for construction of square roots      ...    0.003 sec
Total time needed                          ...    0.009 sec

-------------------
DFT GRID GENERATION
-------------------

General Integration Accuracy     IntAcc      ... 4.388
Radial Grid Type                 RadialGrid  ... OptM3 with GC (2021)
Angular Grid (max. ang.)         AngularGrid ... 4 (Lebedev-302)
Angular grid pruning method      GridPruning ... 4 (adaptive)
Weight generation scheme         WeightScheme... mBecke (2022)
Basis function cutoff            BFCut       ... 1.0000e-11
Integration weight cutoff        WCut        ... 1.0000e-14
Partially contracted basis set               ... off
Rotationally invariant grid construction     ... off
Angular grids for H and He will be reduced by one unit

Total number of grid points                  ...    93017
Total number of batches                      ...     1467
Average number of points per batch           ...       63
Average number of grid points per atom       ...     4429

--------------------
COSX GRID GENERATION
--------------------

GRIDX 1
-------
General Integration Accuracy     IntAcc      ... 3.816
Radial Grid Type                 RadialGrid  ... OptM3 with GC (2021)
Angular Grid (max. ang.)         AngularGrid ... 1 (Lebedev-50)
Angular grid pruning method      GridPruning ... 4 (adaptive)
Weight generation scheme         WeightScheme... mBecke (2022)
Basis function cutoff            BFCut       ... 1.0000e-11
Integration weight cutoff        WCut        ... 1.0000e-14
Partially contracted basis set               ... on
Rotationally invariant grid construction     ... off
Angular grids for H and He will be reduced by one unit

Total number of grid points                  ...    11901
Total number of batches                      ...      105
Average number of points per batch           ...      113
Average number of grid points per atom       ...      567
UseSFitting                                  ... on

GRIDX 2
-------
General Integration Accuracy     IntAcc      ... 4.020
Radial Grid Type                 RadialGrid  ... OptM3 with GC (2021)
Angular Grid (max. ang.)         AngularGrid ... 2 (Lebedev-110)
Angular grid pruning method      GridPruning ... 4 (adaptive)
Weight generation scheme         WeightScheme... mBecke (2022)
Basis function cutoff            BFCut       ... 1.0000e-11
Integration weight cutoff        WCut        ... 1.0000e-14
Partially contracted basis set               ... on
Rotationally invariant grid construction     ... off
Angular grids for H and He will be reduced by one unit

Total number of grid points                  ...    25342
Total number of batches                      ...      209
Average number of points per batch           ...      121
Average number of grid points per atom       ...     1207
UseSFitting                                  ... on

GRIDX 3
-------
General Integration Accuracy     IntAcc      ... 4.338
Radial Grid Type                 RadialGrid  ... OptM3 with GC (2021)
Angular Grid (max. ang.)         AngularGrid ... 3 (Lebedev-194)
Angular grid pruning method      GridPruning ... 4 (adaptive)
Weight generation scheme         WeightScheme... mBecke (2022)
Basis function cutoff            BFCut       ... 1.0000e-11
Integration weight cutoff        WCut        ... 1.0000e-14
Partially contracted basis set               ... on
Rotationally invariant grid construction     ... off
Angular grids for H and He will be reduced by one unit

Total number of grid points                  ...    55401
Total number of batches                      ...      444
Average number of points per batch           ...      124
Average number of grid points per atom       ...     2638
UseSFitting                                  ... on
Grids setup in   1.4 sec
Initializing property integral containers    ... done (  0.0 sec)

SHARK setup successfully completed in   1.6 seconds

Maximum memory used throughout the entire STARTUP-calculation: 25.6 MB


           ************************************************************
           *        Program running with 6 parallel MPI-processes     *
           *              working on a common directory               *
           ************************************************************
-------------------------------------------------------------------------------
                                 ORCA GUESS
                   Start orbitals & Density for SCF / CASSCF
-------------------------------------------------------------------------------

------------
SCF SETTINGS
------------
Hamiltonian:
 Density Functional     Method          .... DFT(GTOs)
 Exchange Functional    Exchange        .... B88
   X-Alpha parameter    XAlpha          ....  0.666667
   Becke's b parameter  XBeta           ....  0.004200
 Correlation Functional Correlation     .... LYP
 LDA part of GGA corr.  LDAOpt          .... VWN-5
 Gradients option       PostSCFGGA      .... off
 Hybrid DFT is turned on
   Fraction HF Exchange ScalHFX         ....  0.200000
   Scaling of DF-GGA-X  ScalDFX         ....  0.720000
   Scaling of DF-GGA-C  ScalDFC         ....  0.810000
   Scaling of DF-LDA-C  ScalLDAC        ....  1.000000
   Perturbative correction              ....  0.000000
   NL short-range parameter             ....  4.800000
 RI-approximation to the Coulomb term is turned on
   Number of AuxJ basis functions       .... 573
   RIJ-COSX (HFX calculated with COS-X)).... on


General Settings:
 Integral files         IntName         .... orca
 Hartree-Fock type      HFTyp           .... RHF
 Total Charge           Charge          ....    0
 Multiplicity           Mult            ....    1
 Number of Electrons    NEL             ....   72
 Basis Dimension        Dim             ....  186
 Nuclear Repulsion      ENuc            ....    458.7353451158 Eh

Convergence Acceleration:
 AO-DIIS                CNVDIIS         .... on
   Start iteration      DIISMaxIt       ....    12
   Startup error        DIISStart       ....  0.200000
   # of expansion vecs  DIISMaxEq       ....     5
   Bias factor          DIISBfac        ....   1.050
   Max. coefficient     DIISMaxC        ....  10.000
 MO-DIIS                CNVKDIIS        .... off
 Trust-Rad. Augm. Hess. CNVTRAH         .... auto
   Auto Start mean grad. ratio tolernc. ....  1.125000
   Auto Start start iteration           ....    50
   Auto Start num. interpolation iter.  ....    10
   Max. Number of Micro iterations      ....    24
   Max. Number of Macro iterations      .... Maxiter - #DIIS iter
   Number of Davidson start vectors     ....     2
   Converg. threshold    (grad. norm)   ....   1.000e-05
   Grad. Scal. Fac. for Micro threshold ....   0.100
   Minimum threshold for Micro iter.    ....   1.000e-02
   NR start threshold (gradient norm)   ....   1.000e-04
   Initial trust radius                 ....   0.400
   Minimum AH scaling param. (alpha)    ....   1.000
   Maximum AH scaling param. (alpha)    .... 1000.000
   Quad. conv. algorithm                .... NR
   White noise on init. David. guess    .... on
   Maximum white noise                  ....   0.010
   Pseudo random numbers                .... off
   Inactive MOs                         .... canonical
   Orbital update algorithm             .... Taylor
   Preconditioner                       .... Diag
   Full preconditioner red. dimension   ....   250
 SOSCF                 CNVSOSCF           .... on
   Start iteration     SOSCFMaxIt         ....   150
   Startup grad/error  SOSCFStart         ....  0.003300
   Hessian update      SOSCFHessUp        .... L-BFGS
   Autom. constraints  SOSCFAutoConstrain .... off
 Level Shifting         CNVShift        .... on
   Level shift para.    LevelShift      ....    0.2500
   Turn off err/grad.   ShiftErr        ....    0.0010
 Zerner damping         CNVZerner       .... off
 Static damping         CNVDamp         .... on
   Fraction old density DampFac         ....    0.7000
   Max. Damping (<1)    DampMax         ....    0.9800
   Min. Damping (>=0)   DampMin         ....    0.0000
   Turn off err/grad.   DampErr         ....    0.1000

SCF Procedure:
 Maximum # iterations   MaxIter         ....   125
 SCF integral mode      SCFMode         .... Direct
   Integral package                     .... SHARK and LIBINT hybrid scheme
 Reset frequency        DirectResetFreq ....    20
 Integral Threshold     Thresh          ....  2.500e-11 Eh
 Primitive CutOff       TCut            ....  2.500e-12 Eh

Convergence Tolerance:
 Convergence Check Mode ConvCheckMode   .... Total+1el-Energy
 Convergence forced     ConvForced      .... 0
 Energy Change          TolE            ....  1.000e-08 Eh
 1-El. energy change                    ....  1.000e-05 Eh
 Orbital Gradient       TolG            ....  1.000e-05
 Orbital Rotation angle TolX            ....  1.000e-05
 DIIS Error             TolErr          ....  5.000e-07

------------------------------
INITIAL GUESS: MODEL POTENTIAL
------------------------------
Loading Hartree-Fock densities                     ... done
Calculating cut-offs                               ... done
Initializing the effective Hamiltonian             ... done
Setting up the integral package (SHARK)            ... done
Starting the Coulomb interaction                   ... done (   0.1 sec)
Making the grid                                    ... done (   0.2 sec)
Mapping shells                                     ... done
Starting the XC term evaluation                    ... done (   0.1 sec)
  promolecular density results
     # of electrons  =     71.995163337
     EX              =    -58.919950328
     EC              =     -2.410958842
     EX+EC           =    -61.330909170
Transforming the Hamiltonian                       ... done (   0.0 sec)
Diagonalizing the Hamiltonian                      ... done (   0.0 sec)
Back transforming the eigenvectors                 ... done (   0.0 sec)
Now organizing SCF variables                       ... done
                      ------------------
                      INITIAL GUESS DONE (   0.3 sec)
                      ------------------
             **** ENERGY FILE WAS UPDATED (orca.en.tmp) ****
Finished Guess after   0.5 sec
Maximum memory used throughout the entire GUESS-calculation: 10.7 MB


           ************************************************************
           *        Program running with 6 parallel MPI-processes     *
           *              working on a common directory               *
           ************************************************************

-------------------------------------------------------------------------------------------
                                      ORCA LEAN-SCF
                              memory conserving SCF solver
-------------------------------------------------------------------------------------------

----------------------------------------D-I-I-S--------------------------------------------
Iteration    Energy (Eh)           Delta-E    RMSDP     MaxDP     DIISErr   Damp  Time(sec)
-------------------------------------------------------------------------------------------
               ***  Starting incremental Fock matrix formation  ***
    1    -460.5337044863862275     0.00e+00  8.25e-03  9.41e-02  2.58e-01  0.700   1.5
    2    -460.6763105789933661    -1.43e-01  5.29e-03  4.93e-02  9.09e-02  0.700   0.9
                               ***Turning on AO-DIIS***
    3    -460.7287814497351519    -5.25e-02  2.12e-03  1.75e-02  3.46e-02  0.700   0.8
    4    -460.7615625996575091    -3.28e-02  3.35e-03  1.98e-02  1.55e-02  0.000   0.8
    5    -460.8336082484362350    -7.20e-02  7.51e-04  6.26e-03  6.89e-03  0.000   0.8
                              *** Initializing SOSCF ***
---------------------------------------S-O-S-C-F--------------------------------------
Iteration    Energy (Eh)           Delta-E    RMSDP     MaxDP     MaxGrad    Time(sec)
--------------------------------------------------------------------------------------
    6    -460.8340982880638421    -4.90e-04  2.44e-04  1.46e-03  1.91e-03     0.8
               *** Restarting incremental Fock matrix formation ***
    7    -460.8342412215046124    -1.43e-04  1.89e-04  1.78e-03  3.90e-04     1.5
    8    -460.8342350181089841     6.20e-06  8.43e-05  1.26e-03  7.83e-04     1.1
    9    -460.8342464793914814    -1.15e-05  3.14e-05  3.26e-04  7.08e-05     1.0
   10    -460.8342462558990746     2.23e-07  1.82e-05  2.09e-04  1.49e-04     0.9
   11    -460.8342466533380275    -3.97e-07  1.18e-05  1.41e-04  4.75e-05     0.9
   12    -460.8342466241223292     2.92e-08  7.37e-06  7.47e-05  5.27e-05     0.8
   13    -460.8342466757538887    -5.16e-08  1.32e-06  2.19e-05  5.30e-06     0.8
   14    -460.8342466693073902     6.45e-09  8.32e-07  1.48e-05  9.78e-06     0.7
                 **** Energy Check signals convergence ****

               *****************************************************
               *                     SUCCESS                       *
               *           SCF CONVERGED AFTER  14 CYCLES          *
               *****************************************************

Recomputing exchange energy using gridx3       ... done (    2.349 sec)
Old exchange energy                            :    -11.962443225 Eh
New exchange energy                            :    -11.962463017 Eh
Exchange energy change after final integration :     -0.000019791 Eh
Total energy after final integration           :   -460.834266466 Eh
             **** ENERGY FILE WAS UPDATED (orca.en.tmp) ****

----------------
TOTAL SCF ENERGY
----------------

Total Energy       :       -460.83426646631625 Eh          -12539.93791 eV

Components:
Nuclear Repulsion  :        458.73534511578794 Eh           12482.82336 eV
Electronic Energy  :       -919.56959179064859 Eh          -25022.76073 eV
One Electron Energy:      -1536.80928694931686 Eh          -41818.70672 eV
Two Electron Energy:        617.23969515866827 Eh           16795.94599 eV

Virial components:
Potential Energy   :       -917.55040112289180 Eh          -24967.81575 eV
Kinetic Energy     :        456.71613465657560 Eh           12427.87785 eV
Virial Ratio       :          2.00901683014294

DFT components:
N(Alpha)           :       35.999949320089 electrons
N(Beta)            :       35.999949320089 electrons
N(Total)           :       71.999898640177 electrons
E(X)               :      -47.563798373718 Eh       
E(C)               :       -2.850999457234 Eh       
E(XC)              :      -50.414797830952 Eh       

---------------
SCF CONVERGENCE
---------------

  Last Energy change         ...   -6.4465e-09  Tolerance :   1.0000e-08
  Last MAX-Density change    ...    1.4831e-05  Tolerance :   1.0000e-07
  Last RMS-Density change    ...    8.3194e-07  Tolerance :   5.0000e-09
  Last DIIS Error            ...    1.9075e-03  Tolerance :   5.0000e-07
  Last Orbital Gradient      ...    9.7803e-06  Tolerance :   1.0000e-05
  Last Orbital Rotation      ...    1.2773e-05  Tolerance :   1.0000e-05


----------------
ORBITAL ENERGIES
----------------

  NO   OCC          E(Eh)            E(eV) 
   0   2.0000     -19.233181      -523.3615 
   1   2.0000     -19.192922      -522.2659 
   2   2.0000     -19.142753      -520.9008 
   3   2.0000     -10.331094      -281.1234 
   4   2.0000     -10.216890      -278.0157 
   5   2.0000     -10.179627      -277.0017 
   6   2.0000     -10.178671      -276.9757 
   7   2.0000     -10.175791      -276.8974 
   8   2.0000     -10.172954      -276.8202 
   9   2.0000      -1.164106       -31.6769 
  10   2.0000      -1.045442       -28.4479 
  11   2.0000      -0.925054       -25.1720 
  12   2.0000      -0.782501       -21.2929 
  13   2.0000      -0.753753       -20.5107 
  14   2.0000      -0.706960       -19.2374 
  15   2.0000      -0.640437       -17.4272 
  16   2.0000      -0.623399       -16.9636 
  17   2.0000      -0.519419       -14.1341 
  18   2.0000      -0.512850       -13.9554 
  19   2.0000      -0.498777       -13.5724 
  20   2.0000      -0.497337       -13.5332 
  21   2.0000      -0.470312       -12.7978 
  22   2.0000      -0.434091       -11.8122 
  23   2.0000      -0.427920       -11.6443 
  24   2.0000      -0.414250       -11.2723 
  25   2.0000      -0.409107       -11.1324 
  26   2.0000      -0.406167       -11.0524 
  27   2.0000      -0.393032       -10.6950 
  28   2.0000      -0.389204       -10.5908 
  29   2.0000      -0.374997       -10.2042 
  30   2.0000      -0.364175        -9.9097 
  31   2.0000      -0.355468        -9.6728 
  32   2.0000      -0.327050        -8.8995 
  33   2.0000      -0.306558        -8.3419 
  34   2.0000      -0.279399        -7.6028 
  35   2.0000      -0.240221        -6.5367 
  36   0.0000      -0.007885        -0.2146 
  37   0.0000       0.012320         0.3352 
  38   0.0000       0.030050         0.8177 
  39   0.0000       0.059034         1.6064 
  40   0.0000       0.076482         2.0812 
  41   0.0000       0.087915         2.3923 
  42   0.0000       0.109467         2.9787 
  43   0.0000       0.112830         3.0703 
  44   0.0000       0.126546         3.4435 
  45   0.0000       0.135567         3.6890 
  46   0.0000       0.142613         3.8807 
*Only the first 10 virtual orbitals were printed.

                    ********************************
                    * MULLIKEN POPULATION ANALYSIS *
                    ********************************

-----------------------
MULLIKEN ATOMIC CHARGES
-----------------------
   0 C :    0.034361
   1 C :    0.140008
   2 H :    0.046333
   3 H :    0.058701
   4 H :    0.059003
   5 O :   -0.147220
   6 O :   -0.138743
   7 H :    0.202650
   8 O :   -0.246161
   9 C :   -0.134180
  10 C :   -0.105758
  11 C :    0.069493
  12 H :   -0.004104
  13 H :   -0.001671
  14 H :    0.037609
  15 H :    0.013015
  16 C :    0.073439
  17 H :   -0.000317
  18 H :    0.001910
  19 H :    0.016809
  20 H :    0.024823
Sum of atomic charges:   -0.0000000

--------------------------------
MULLIKEN REDUCED ORBITAL CHARGES
--------------------------------
  0 C s       :     2.953475  s :     2.953475
      pz      :     1.005436  p :     2.987365
      px      :     0.970646
      py      :     1.011283
      dz2     :     0.001760  d :     0.024799
      dxz     :     0.007462
      dyz     :     0.006680
      dx2y2   :     0.002988
      dxy     :     0.005909

  1 C s       :     3.084120  s :     3.084120
      pz      :     0.880754  p :     2.644525
      px      :     0.945100
      py      :     0.818671
      dz2     :     0.019973  d :     0.131346
      dxz     :     0.015836
      dyz     :     0.025262
      dx2y2   :     0.043749
      dxy     :     0.026527

  2 H s       :     0.930458  s :     0.930458
      pz      :     0.006075  p :     0.023209
      px      :     0.006627
      py      :     0.010507

  3 H s       :     0.917305  s :     0.917305
      pz      :     0.008085  p :     0.023994
      px      :     0.008252
      py      :     0.007657

  4 H s       :     0.916932  s :     0.916932
      pz      :     0.009949  p :     0.024065
      px      :     0.005415
      py      :     0.008701

  5 O s       :     3.793586  s :     3.793586
      pz      :     1.594845  p :     4.329510
      px      :     1.390408
      py      :     1.344257
      dz2     :     0.003317  d :     0.024124
      dxz     :     0.005264
      dyz     :     0.003969
      dx2y2   :     0.007457
      dxy     :     0.004118

  6 O s       :     3.788145  s :     3.788145
      pz      :     1.630149  p :     4.332372
      px      :     1.236386
      py      :     1.465836
      dz2     :     0.002381  d :     0.018226
      dxz     :     0.003869
      dyz     :     0.002867
      dx2y2   :     0.003924
      dxy     :     0.005186

  7 H s       :     0.729614  s :     0.729614
      pz      :     0.016813  p :     0.067736
      px      :     0.018510
      py      :     0.032413

  8 O s       :     3.757898  s :     3.757898
      pz      :     1.415796  p :     4.469818
      px      :     1.445057
      py      :     1.608966
      dz2     :     0.003401  d :     0.018444
      dxz     :     0.003526
      dyz     :     0.003731
      dx2y2   :     0.003161
      dxy     :     0.004625

  9 C s       :     3.167475  s :     3.167475
      pz      :     0.959604  p :     2.930929
      px      :     1.011815
      py      :     0.959510
      dz2     :     0.008150  d :     0.035777
      dxz     :     0.004067
      dyz     :     0.013942
      dx2y2   :     0.004165
      dxy     :     0.005452

 10 C s       :     3.154157  s :     3.154157
      pz      :     0.924568  p :     2.915725
      px      :     0.997674
      py      :     0.993483
      dz2     :     0.010188  d :     0.035875
      dxz     :     0.001408
      dyz     :     0.009624
      dx2y2   :     0.006258
      dxy     :     0.008397

 11 C s       :     2.927128  s :     2.927128
      pz      :     0.976940  p :     2.974623
      px      :     1.015424
      py      :     0.982259
      dz2     :     0.008467  d :     0.028756
      dxz     :     0.002234
      dyz     :     0.005305
      dx2y2   :     0.004783
      dxy     :     0.007967

 12 H s       :     0.981695  s :     0.981695
      pz      :     0.014121  p :     0.022409
      px      :     0.004714
      py      :     0.003574

 13 H s       :     0.978257  s :     0.978257
      pz      :     0.013547  p :     0.023413
      px      :     0.005372
      py      :     0.004494

 14 H s       :     0.938397  s :     0.938397
      pz      :     0.004850  p :     0.023994
      px      :     0.013409
      py      :     0.005735

 15 H s       :     0.963724  s :     0.963724
      pz      :     0.005797  p :     0.023260
      px      :     0.009177
      py      :     0.008287

 16 C s       :     2.926123  s :     2.926123
      pz      :     0.964498  p :     2.971588
      px      :     1.005401
      py      :     1.001689
      dz2     :     0.007618  d :     0.028850
      dxz     :     0.003793
      dyz     :     0.007653
      dx2y2   :     0.002705
      dxy     :     0.007082

 17 H s       :     0.977936  s :     0.977936
      pz      :     0.007792  p :     0.022381
      px      :     0.004633
      py      :     0.009955

 18 H s       :     0.974715  s :     0.974715
      pz      :     0.007589  p :     0.023375
      px      :     0.005044
      py      :     0.010743

 19 H s       :     0.959928  s :     0.959928
      pz      :     0.004362  p :     0.023263
      px      :     0.011430
      py      :     0.007470

 20 H s       :     0.951378  s :     0.951378
      pz      :     0.004859  p :     0.023798
      px      :     0.010855
      py      :     0.008085



                     *******************************
                     * LOEWDIN POPULATION ANALYSIS *
                     *******************************

----------------------
LOEWDIN ATOMIC CHARGES
----------------------
   0 C :   -0.065273
   1 C :    0.070603
   2 H :    0.043295
   3 H :    0.055225
   4 H :    0.055296
   5 O :   -0.005266
   6 O :   -0.031562
   7 H :    0.058187
   8 O :   -0.176866
   9 C :   -0.054695
  10 C :   -0.046534
  11 C :   -0.060868
  12 H :    0.023170
  13 H :    0.022094
  14 H :    0.035211
  15 H :    0.029852
  16 C :   -0.061093
  17 H :    0.023639
  18 H :    0.022721
  19 H :    0.031384
  20 H :    0.031480

-------------------------------
LOEWDIN REDUCED ORBITAL CHARGES
-------------------------------
  0 C s       :     2.843906  s :     2.843906
      pz      :     1.055281  p :     3.154100
      px      :     1.032181
      py      :     1.066638
      dz2     :     0.004113  d :     0.067266
      dxz     :     0.020771
      dyz     :     0.017941
      dx2y2   :     0.007936
      dxy     :     0.016506

  1 C s       :     2.854709  s :     2.854709
      pz      :     0.892739  p :     2.784583
      px      :     0.969041
      py      :     0.922803
      dz2     :     0.040364  d :     0.290105
      dxz     :     0.035506
      dyz     :     0.053589
      dx2y2   :     0.102539
      dxy     :     0.058107

  2 H s       :     0.889910  s :     0.889910
      pz      :     0.017456  p :     0.066796
      px      :     0.019922
      py      :     0.029418

  3 H s       :     0.878945  s :     0.878945
      pz      :     0.022487  p :     0.065831
      px      :     0.022627
      py      :     0.020716

  4 H s       :     0.878875  s :     0.878875
      pz      :     0.026971  p :     0.065828
      px      :     0.015035
      py      :     0.023822

  5 O s       :     3.540814  s :     3.540814
      pz      :     1.596420  p :     4.421663
      px      :     1.408738
      py      :     1.416505
      dz2     :     0.006452  d :     0.042788
      dxz     :     0.007812
      dyz     :     0.006336
      dx2y2   :     0.014218
      dxy     :     0.007970

  6 O s       :     3.558920  s :     3.558920
      pz      :     1.636381  p :     4.440783
      px      :     1.278205
      py      :     1.526197
      dz2     :     0.004018  d :     0.031859
      dxz     :     0.007648
      dyz     :     0.004391
      dx2y2   :     0.006628
      dxy     :     0.009175

  7 H s       :     0.752192  s :     0.752192
      pz      :     0.046054  p :     0.189621
      px      :     0.046612
      py      :     0.096955

  8 O s       :     3.541086  s :     3.541086
      pz      :     1.454388  p :     4.603965
      px      :     1.503329
      py      :     1.646248
      dz2     :     0.004293  d :     0.031815
      dxz     :     0.007130
      dyz     :     0.006800
      dx2y2   :     0.004614
      dxy     :     0.008977

  9 C s       :     2.878900  s :     2.878900
      pz      :     1.033093  p :     3.086922
      px      :     0.981448
      py      :     1.072381
      dz2     :     0.021695  d :     0.088874
      dxz     :     0.007682
      dyz     :     0.036859
      dx2y2   :     0.011909
      dxy     :     0.010729

 10 C s       :     2.878347  s :     2.878347
      pz      :     1.040339  p :     3.078944
      px      :     0.973226
      py      :     1.065379
      dz2     :     0.026312  d :     0.089244
      dxz     :     0.002787
      dyz     :     0.027381
      dx2y2   :     0.016509
      dxy     :     0.016254

 11 C s       :     2.833711  s :     2.833711
      pz      :     1.054218  p :     3.154205
      px      :     1.067731
      py      :     1.032256
      dz2     :     0.021301  d :     0.072952
      dxz     :     0.005142
      dyz     :     0.014263
      dx2y2   :     0.012364
      dxy     :     0.019882

 12 H s       :     0.910549  s :     0.910549
      pz      :     0.040616  p :     0.066281
      px      :     0.014805
      py      :     0.010861

 13 H s       :     0.913193  s :     0.913193
      pz      :     0.038738  p :     0.064713
      px      :     0.013137
      py      :     0.012838

 14 H s       :     0.898551  s :     0.898551
      pz      :     0.012277  p :     0.066237
      px      :     0.037244
      py      :     0.016717

 15 H s       :     0.906506  s :     0.906506
      pz      :     0.015286  p :     0.063642
      px      :     0.024549
      py      :     0.023807

 16 C s       :     2.834139  s :     2.834139
      pz      :     1.032600  p :     3.153769
      px      :     1.063403
      py      :     1.057766
      dz2     :     0.020606  d :     0.073185
      dxz     :     0.008795
      dyz     :     0.019079
      dx2y2   :     0.006757
      dxy     :     0.017949

 17 H s       :     0.909673  s :     0.909673
      pz      :     0.024276  p :     0.066689
      px      :     0.014953
      py      :     0.027460

 18 H s       :     0.912387  s :     0.912387
      pz      :     0.022399  p :     0.064892
      px      :     0.012284
      py      :     0.030209

 19 H s       :     0.904927  s :     0.904927
      pz      :     0.012689  p :     0.063689
      px      :     0.031303
      py      :     0.019697

 20 H s       :     0.903108  s :     0.903108
      pz      :     0.014206  p :     0.065412
      px      :     0.029521
      py      :     0.021684



                      *****************************
                      * MAYER POPULATION ANALYSIS *
                      *****************************

  NA   - Mulliken gross atomic population
  ZA   - Total nuclear charge
  QA   - Mulliken gross atomic charge
  VA   - Mayer's total valence
  BVA  - Mayer's bonded valence
  FA   - Mayer's free valence

  ATOM       NA         ZA         QA         VA         BVA        FA
  0 C      5.9656     6.0000     0.0344     3.9095     3.9095    -0.0000
  1 C      5.8600     6.0000     0.1400     4.3156     4.3156     0.0000
  2 H      0.9537     1.0000     0.0463     1.0031     1.0031    -0.0000
  3 H      0.9413     1.0000     0.0587     1.0001     1.0001    -0.0000
  4 H      0.9410     1.0000     0.0590     0.9994     0.9994    -0.0000
  5 O      8.1472     8.0000    -0.1472     2.2042     2.2042     0.0000
  6 O      8.1387     8.0000    -0.1387     1.9545     1.9545    -0.0000
  7 H      0.7974     1.0000     0.2026     1.0707     1.0707     0.0000
  8 O      8.2462     8.0000    -0.2462     2.2471     2.2471    -0.0000
  9 C      6.1342     6.0000    -0.1342     4.0964     4.0964    -0.0000
 10 C      6.1058     6.0000    -0.1058     4.0991     4.0991    -0.0000
 11 C      5.9305     6.0000     0.0695     3.9280     3.9280    -0.0000
 12 H      1.0041     1.0000    -0.0041     0.9775     0.9775     0.0000
 13 H      1.0017     1.0000    -0.0017     0.9982     0.9982     0.0000
 14 H      0.9624     1.0000     0.0376     1.0139     1.0139    -0.0000
 15 H      0.9870     1.0000     0.0130     0.9843     0.9843    -0.0000
 16 C      5.9266     6.0000     0.0734     3.9224     3.9224    -0.0000
 17 H      1.0003     1.0000    -0.0003     0.9774     0.9774    -0.0000
 18 H      0.9981     1.0000     0.0019     0.9977     0.9977     0.0000
 19 H      0.9832     1.0000     0.0168     0.9855     0.9855    -0.0000
 20 H      0.9752     1.0000     0.0248     1.0104     1.0104    -0.0000

  Mayer bond orders larger than 0.100000
B(  0-C ,  1-C ) :   1.0456 B(  0-C ,  2-H ) :   0.9536 B(  0-C ,  3-H ) :   0.9477 
B(  0-C ,  4-H ) :   0.9478 B(  1-C ,  5-O ) :   1.1554 B(  1-C ,  8-O ) :   1.9857 
B(  5-O ,  6-O ) :   0.9262 B(  6-O ,  7-H ) :   0.8922 B(  9-C , 10-C ) :   1.9264 
B(  9-C , 16-C ) :   1.0852 B(  9-C , 17-H ) :   0.9521 B( 10-C , 11-C ) :   1.0889 
B( 10-C , 12-H ) :   0.9519 B( 11-C , 13-H ) :   0.9592 B( 11-C , 14-H ) :   0.9424 
B( 11-C , 15-H ) :   0.9492 B( 16-C , 18-H ) :   0.9596 B( 16-C , 19-H ) :   0.9505 
B( 16-C , 20-H ) :   0.9444 

-------
TIMINGS
-------

Total SCF time: 0 days 0 hours 0 min 16 sec 

Total time                  ....      16.606 sec
Sum of individual times     ....      15.925 sec  ( 95.9%)

SCF preparation             ....       0.213 sec  (  1.3%)
Fock matrix formation       ....      15.266 sec  ( 91.9%)
  Startup                   ....       0.011 sec  (  0.1% of F)
  Split-RI-J                ....       1.548 sec  ( 10.1% of F)
  Chain of spheres X        ....      11.480 sec  ( 75.2% of F)
  XC integration            ....       2.637 sec  ( 17.3% of F)
    XC Preparation          ....       0.000 sec  (  0.0% of XC)
    Basis function eval.    ....       0.811 sec  ( 30.7% of XC)
    Density eval.           ....       0.444 sec  ( 16.8% of XC)
    XC-Functional eval.     ....       0.138 sec  (  5.2% of XC)
    XC-Potential eval.      ....       0.432 sec  ( 16.4% of XC)
Diagonalization             ....       0.000 sec  (  0.0%)
Density matrix formation    ....       0.056 sec  (  0.3%)
Total Energy calculation    ....       0.025 sec  (  0.2%)
Population analysis         ....       0.023 sec  (  0.1%)
Orbital Transformation      ....       0.032 sec  (  0.2%)
Orbital Orthonormalization  ....       0.000 sec  (  0.0%)
DIIS solution               ....       0.166 sec  (  1.0%)
SOSCF solution              ....       0.143 sec  (  0.9%)
Finished LeanSCF after  16.6 sec

Maximum memory used throughout the entire LEANSCF-calculation: 16.7 MB


-------------------------------------------------------------------------------
                          DFT DISPERSION CORRECTION                            
                                                                               
                              DFTD3 V3.1  Rev 1                                
                          USING Becke-Johnson damping                          
-------------------------------------------------------------------------------
The B3LYP functional is recognized
Active option DFTDOPT                   ...         4   

molecular C6(AA) [au] = 3462.722437 


            DFT-D V3
 parameters
 s6 scaling factor         :     1.0000 
 a1 scaling factor         :     0.3981 
 s8 scaling factor         :     1.9889 
 a2 scaling factor         :     4.4211 
 ad hoc parameters k1-k3   :    16.0000     1.3333    -4.0000 

 Edisp/kcal,au: -16.689038109591  -0.026595672287 
 E6   /kcal   :  -8.330592706 
 E8   /kcal   :  -8.358445404 
 % E8         :  50.083446086 

-------------------------   ----------------
Dispersion correction           -0.026595672
-------------------------   ----------------


-------------------------   --------------------
FINAL SINGLE POINT ENERGY      -460.860862138604
-------------------------   --------------------



           ************************************************************
           *        Program running with 6 parallel MPI-processes     *
           *              working on a common directory               *
           ************************************************************
------------------------------------------------------------------------------
                         ORCA SCF GRADIENT CALCULATION
------------------------------------------------------------------------------

Nuc. rep. gradient        (SHARK) ... done (  0.0 sec)
HCore & Overlap gradient  (SHARK) ... done (  0.1 sec)
Split-RIJ-J gradient      (SHARK) ... done (  0.4 sec)
done (  6.4 sec)
XC gradient                       ... done (  1.5 sec)
Dispersion correction             ... done (  0.0 sec)

-------------------
DISPERSION GRADIENT
-------------------

   1   C   :    0.000260690   -0.000118609    0.000136231
   2   C   :    0.000472660    0.000013856    0.000057384
   3   H   :    0.000147566   -0.000000541    0.000097334
   4   H   :    0.000156109   -0.000086330    0.000026692
   5   H   :    0.000107510   -0.000096535    0.000128666
   6   O   :    0.000165482    0.000230187   -0.000042136
   7   O   :    0.000449165    0.000383692   -0.000106583
   8   H   :    0.000302489    0.000201227   -0.000125770
   9   O   :    0.000463752   -0.000180185   -0.000120698
  10   C   :   -0.000479280    0.000359668   -0.000154771
  11   C   :   -0.000441796   -0.000263476   -0.000431515
  12   C   :   -0.000288973   -0.000585235   -0.000095690
  13   H   :   -0.000106050   -0.000044060   -0.000270916
  14   H   :   -0.000107608   -0.000297618    0.000115918
  15   H   :   -0.000069486   -0.000344897   -0.000031635
  16   H   :   -0.000076423   -0.000232388   -0.000022019
  17   C   :   -0.000398931    0.000391317    0.000343785
  18   H   :   -0.000144589    0.000174593   -0.000172772
  19   H   :   -0.000145738    0.000105522    0.000289188
  20   H   :   -0.000128719    0.000156154    0.000145978
  21   H   :   -0.000137829    0.000233659    0.000233329

Difference to translation invariance:
           :    0.0000000000    0.0000000000    0.0000000000

Difference to rotation invariance:
           :    0.0000000000    0.0000000000   -0.0000000000

Norm of the Dispersion gradient    ...    0.0019373616
RMS gradient                       ...    0.0002440846
MAX gradient                       ...    0.0005852353

------------------
CARTESIAN GRADIENT
------------------

   1   C   :   -0.000019586   -0.000063015    0.000140612
   2   C   :    0.000071899    0.000035765    0.000139881
   3   H   :   -0.000000426    0.000034828   -0.000074077
   4   H   :    0.000036361    0.000014221   -0.000004130
   5   H   :   -0.000111460   -0.000012715   -0.000008137
   6   O   :    0.000013111   -0.000088625    0.000046795
   7   O   :   -0.000099232    0.000022406   -0.000053141
   8   H   :   -0.000016337   -0.000034043    0.000036005
   9   O   :    0.000175697    0.000055110   -0.000282265
  10   C   :    0.000092827   -0.000041379    0.000033544
  11   C   :    0.000016011    0.000115132   -0.000002921
  12   C   :   -0.000137332    0.000050494   -0.000061313
  13   H   :   -0.000058527   -0.000167284    0.000045631
  14   H   :    0.000068729   -0.000009564    0.000059117
  15   H   :    0.000001947    0.000043130    0.000016894
  16   H   :    0.000030921    0.000002661   -0.000033830
  17   C   :    0.000014067   -0.000058312   -0.000016898
  18   H   :   -0.000058925    0.000036822    0.000000668
  19   H   :    0.000022140   -0.000012555    0.000049817
  20   H   :   -0.000017950    0.000067643   -0.000007054
  21   H   :   -0.000023938    0.000009279   -0.000025197

Difference to translation invariance:
           :   -0.0000000000    0.0000000000   -0.0000000000

Difference to rotation invariance:
           :    0.0000147161   -0.0000219189    0.0000916667

Norm of the Cartesian gradient     ...    0.0005700978
RMS gradient                       ...    0.0000718256
MAX gradient                       ...    0.0002822650

-------
TIMINGS
-------

Total SCF gradient time     ....        8.508 sec

Densities                   ....       0.001 sec  (  0.0%)
One electron gradient       ....       0.089 sec  (  1.0%)
RI-J Coulomb gradient       ....       0.431 sec  (  5.1%)
COSX gradient               ....       6.424 sec  ( 75.5%)
XC gradient                 ....       1.514 sec  ( 17.8%)

Maximum memory used throughout the entire SCFGRAD-calculation: 30.8 MB


           ************************************************************
           *        Program running with 6 parallel MPI-processes     *
           *              working on a common directory               *
           ************************************************************

------------------------------------------------------------------------------
                              ORCA PROPERTY CALCULATIONS
------------------------------------------------------------------------------

GBWName                                 ... orca.gbw
Number of atoms                         ...     21
Number of basis functions               ...    186
Max core memory                         ...   4096 MB

Electric properties:
Dipole moment                           ... YES
Quadrupole moment                       ...  NO
Static polarizability (Dipole/Dipole)   ...  NO
Static polarizability (Dipole/Quad.)    ...  NO
Static polarizability (Quad./Quad.)     ...  NO
Static polarizability (Velocity)        ...  NO
Static hyperpolarizability              ...  NO

Atomic electric properties:
Dipole moment                           ...  NO
Quadrupole moment                       ...  NO
Static polarizability                   ...  NO

Choice of electric origin               ... Center of mass
Position of electric origin             ...    -0.333688     0.295166    -0.258302

General magnetic properties:
Magnetizability                         ...  NO

EPR properties:
g-Tensor (aka g-matrix)                 ...  NO
Zero-Field splitting spin-orbit         ...  NO
Zero-field splitting spin-spin          ...  NO
Hyperfine couplings                     ...  NO (   0 nuclei)
Quadrupole couplings                    ...  NO (   0 nuclei)
Contact density                         ...  NO (   0 nuclei)

NMR properties:
Chemical shifts                         ...  NO (   0 nuclei)
Spin-rotation constants                 ...  NO (   0 nuclei)
Spin-spin couplings                     ...  NO (   0 nuclei,    0 pairs)

Choice of magnetic origin               ... GIAO
Position of magnetic origin             ...     0.000000     0.000000     0.000000

Properties with geometric perturbations:
SCF Hessian                             ...  NO
IR spectrum                             ...  NO
VCD spectrum                            ...  NO
X-ray spectroscopy properties:
SCF XES/XAS/RIXS spectra                ...  NO

SCF SOC stabilization energy            ...  NO
Diagonal Born-Oppenheimer correction    ...  NO

-------------
DIPOLE MOMENT
-------------

Method             : SCF
Type of density    : Electron Density
Multiplicity       :   1
Irrep              :   0
Energy             :  -460.8342664663162509 Eh
Basis              : AO
                                X                 Y                 Z
Electronic contribution:      7.677637366       3.342964470      -2.303563702
Nuclear contribution   :     -7.132635034      -3.833616398       2.804669998
                        -----------------------------------------
Total Dipole Moment    :      0.545002332      -0.490651927       0.501106296
                        -----------------------------------------
Magnitude (a.u.)       :      0.888186003
Magnitude (Debye)      :      2.257589406



--------------------
Rotational spectrum 
--------------------
 
Rotational constants in cm-1:             0.075319             0.027423             0.023018 
Rotational constants in MHz :          2258.020182           822.121929           690.050653 

Dipole components along the rotational axes: 
x,y,z [a.u.] :     0.631323     0.427607     0.455475 
x,y,z [Debye]:     1.604696     1.086891     1.157726 

 

Dipole moment calculation done in   0.0 sec 

Maximum memory used throughout the entire PROP-calculation: 9.1 MB

--------------------------------
SUGGESTED CITATIONS FOR THIS RUN
--------------------------------

Below you find a list of papers that are relevant to this ORCA run
We neither can nor want to force you to cite these papers, but we appreciate if you do
You receive ORCA, which is the product of decades of hard work by many enthusiastic individuals, for free
The only thing we kindly ask in return is that you cite our papers,
We deeply appreciate it, if you show your appreciation for ORCA by not just citing the generic ORCA reference.

Please note that relegating all ORCA citations to the supporting information does *not* help us.
SI sections are not indexed - citations you put there will not count into any citation statistics
But we need these citations in order to attract the funding resources that allow us to do what we are doing

Therefore, if you are a happy ORCA user, please consider citing a few of the papers listed below in the main body of your paper

In addition to the list printed below, the program has created the file orca.bibtex that contains the list in bibtex format
You can import this file easily into all common literature databanks and citation aid programs


List of essential papers. We consider these as the minimum necessary citations

  1. Neese, F.
     Software update: the ORCA program system, version 6.0
     WIRES Comput. Molec. Sci. 2025 15(1), e70019
     doi.org/10.1002/wcms.7019

List of papers to cite with high priority. The work reported in these papers was absolutely
necessary for this run to complete.
Our perspective: the developers of density functionals and basis sets usually get cited in chemistry papers
Good! But without the algorithms to do something with them, the functionals or basis sets would not do anything.
Hence, in our opinion, the algorithm design and method developments papers are equally worthy of getting cited

  1. Neese, F.
     An improvement of the resolution of the identity approximation for the formation of the Coulomb matrix
     J. Comp. Chem. 2003 24(14), 1740-1747
     doi.org/10.1002/jcc.10318
  2. Neese, F.; Wennmohs, F.; Hansen, A.; Becker, U.
     Efficient, approximate and parallel Hartree-Fock and hybrid DFT calculations. A 'chain-of-spheres' algorithm for the Hartree-Fock exchange
     Chem. Phys. 2009 356(1-3), 98-109
     doi.org/10.1016/j.chemphys.2008.10.036
  3. Grimme, S.; Antony, J.; Ehrlich, S.; Krieg, H.
     A consistent and accurate ab initio parametrization of density functional dispersion correction (DFT-D) for the 94 elements H-Pu
     J. Chem. Phys. 2010 132 , 154104
     doi.org/10.1063/1.3382344
  4. Grimme, S.; Ehrlich, S.; Goerigk, L.
     Effect of the damping function in dispersion corrected density functional theory
     J. Comput. Chem. 2011 32(7), 1456-1465
     doi.org/10.1002/jcc.21759
  5. Helmich-Paris, B.; de Souza, B.; Neese, F.; Izsák, R.
     An improved chain of spheres for exchange algorithm
     J. Chem. Phys. 2021 155(10), 104109
     doi.org/10.1063/5.0058766
  6. Neese, F.
     The SHARK Integral Generation and Digestion System
     J. Comp. Chem. 2022 44(3), 381
     doi.org/10.1002/jcc.26942

List of suggested additional citations. These are papers that are important in the 'surrounding' of 
of this run, or papers that preceded the highly important papers. If you like your results we are grateful for a citation.

  1. Izsak, R.; Neese, F.
     An overlap fitted chain of spheres exchange method
     J. Chem. Phys. 2011 135 , 144105
     doi.org/10.1063/1.3646921
  2. Izsak, R.; Hansen, A.; Neese, F.
     The resolution of identity and chain of spheres approximations for the LPNO-CCSD singles Fock term
     Molec. Phys. 2012 110 , 2413-2417
     doi.org/10.1080/00268976.2012.687466
  3. Neese, F.
     The ORCA program system
     WIRES Comput. Molec. Sci. 2012 2(1), 73-78
     doi.org/10.1002/wcms.81
  4. Izsak, R.; Neese, F.; Klopper, W.
     Robust fitting techniques in the chain of spheres approximation to the Fock exchange: The role of the complementary space
     J. Chem. Phys. 2013 139 , 
     doi.org/10.1063/1.4819264
  5. Neese, F.
     Software update: the ORCA program system, version 4.0
     WIRES Comput. Molec. Sci. 2018 8(1), 1-6
     doi.org/10.1002/wcms.1327
  6. Neese, F.; Wennmohs, F.; Becker, U.; Riplinger, C.
     The ORCA quantum chemistry program package
     J. Chem. Phys. 2020 152(22), 224108
     doi.org/10.1063/5.0004608
  7. Neese, F.
     Software update: The ORCA program system—Version 5.0
     WIRES Comput. Molec. Sci. 2022 12(1), e1606
     doi.org/10.1002/wcms.1606

List of optional additional citations

  1. Neese, F.
     Approximate second-order SCF convergence for spin unrestricted wavefunctions
     Chem. Phys. Lett. 2000 325(1-3), 93-98
     doi.org/10.1016/s0009-2614(00)00662-x

Timings for individual modules:

Sum of individual times          ...       29.205 sec (=   0.487 min)
Startup calculation              ...        1.993 sec (=   0.033 min)   6.8 %
SCF iterations                   ...       17.751 sec (=   0.296 min)  60.8 %
Property calculations            ...        0.464 sec (=   0.008 min)   1.6 %
SCF Gradient evaluation          ...        8.997 sec (=   0.150 min)  30.8 %
                             ****ORCA TERMINATED NORMALLY****
TOTAL RUN TIME: 0 days 0 hours 0 minutes 29 seconds 774 msec
