
                                 *****************
                                 * O   R   C   A *
                                 *****************

                                            #,                                       
                                            ###                                      
                                            ####                                     
                                            #####                                    
                                            ######                                   
                                           ########,                                 
                                     ,,################,,,,,                         
                               ,,#################################,,                 
                          ,,##########################################,,             
                       ,#########################################, ''#####,          
                    ,#############################################,,   '####,        
                  ,##################################################,,,,####,       
                ,###########''''           ''''###############################       
              ,#####''   ,,,,##########,,,,          '''####'''          '####       
            ,##' ,,,,###########################,,,                        '##       
           ' ,,###''''                  '''############,,,                           
         ,,##''                                '''############,,,,        ,,,,,,###''
      ,#''                                            '''#######################'''  
     '                                                          ''''####''''         
             ,#######,   #######,   ,#######,      ##                                
            ,#'     '#,  ##    ##  ,#'     '#,    #''#        ,####,    ,#,          
            ##       ##  ##   ,#'  ##            #'  '#       #'       ,# #          
            ##       ##  #######   ##           ,######,      #####,      #          
            '#,     ,#'  ##    ##  '#,     ,#' ,#      #,     #,   #      #          
             '#######'   ##     ##  '#######'  #'      '#     '####' #    #          



                #########################################################
                #                        -***-                          #
                #          Department of theory and spectroscopy        #
                #                                                       #
                #                      Frank Neese                      #
                #                                                       #
                #     Directorship, Architecture, Infrastructure        #
                #                    SHARK, DRIVERS                     #
                #        Core code/Algorithms in most modules           #
                #                                                       #
                #        Max Planck Institute fuer Kohlenforschung      #
                #                Kaiser Wilhelm Platz 1                 #
                #                 D-45470 Muelheim/Ruhr                 #
                #                      Germany                          #
                #                                                       #
                #                  All rights reserved                  #
                #                        -***-                          #
                #########################################################


                         Program Version 6.1.0  -  RELEASE   -
                                (GIT: $679e74b$)
                          ($2025-06-10 18:02:51 +0200$)


 With contributions from (in alphabetic order):
[Max-Planck-Institut fuer Kohlenforschung]                               
  Daniel Aravena         : Magnetic Suceptibility                        
  Michael Atanasov       : Ab Initio Ligand Field Theory (pilot matlab implementation)
  Alexander A. Auer      : GIAO ZORA, VPT2 properties, NMR spectrum      
  Ute Becker             : All parallelization in ORCA, NUMFREQ, NUMCALC 
  Giovanni Bistoni       : ED, misc. LED, open-shell LED, HFLD           
  Dmytro Bykov           : pre 5.0 version of the SCF Hessian            
  Marcos Casanova-Páez   : Triplet and SCS-CIS(D). UHF-(DLPNO)-IP/EA/STEOM-CCSD. UHF-CVS-IP/STEOM-CCSD   
  Vijay G. Chilkuri      : MRCI spin determinant printing, contributions to CSF-ICE 
  Pauline Colinet        : FMM embedding                                 
  Dipayan Datta          : RHF DLPNO-CCSD density                        
  Achintya Kumar Dutta   : EOM-CC, STEOM-CC                              
  Nicolas Foglia         : Exact transition moments, OPA infrastructure, MCD improvements    
  Dmitry Ganyushin       : Spin-Orbit,Spin-Spin,Magnetic field MRCI      
  Miquel Garcia-Rates    : C-PCM and meta-GGA Hessian, CCSD/C-PCM, Gaussian charge scheme 
  Tiago L. C. Gouveia    : GS-ROHF, GS-ROCIS                             
  Yang Guo               : DLPNO-NEVPT2, F12-NEVPT2, CIM, IAO-localization        
  Andreas Hansen         : Spin unrestricted coupled pair/coupled cluster methods 
  Ingolf Harden          : AUTO-CI MPn and infrastructure                
  Benjamin Helmich-Paris : MC-RPA, TRAH-(SCF,CASSCF), AVAS, COSX integrals, SCF dyn. polar., MC-PDFT, srDFT 
  Lee Huntington         : MR-EOM, pCC                                   
  Robert Izsak           : Overlap fitted RIJCOSX, COSX-SCS-MP3, EOM     
  Riya Kayal             : Wick's Theorem for AUTO-CI, AUTO-CI UHF-CCSDT 
  Emily Kempfer          : AUTO-CI RHF CISDT and CCSDT, approximate NEVPT4
  Christian Kollmar      : KDIIS, OOCD, Brueckner-CCSD(T), CCSD density, CASPT2, CASPT2-K, improved NEVPT2 
  Axel Koslowski         : Symmetry handling                             
  Simone Kossmann        : meta-GGA functionals, TD-DFT gradient, OOMP2, (MP2 Hessian; deprecated post 5.0) 
  Lucas Lang             : DCDCAS, Hyperfine gauge corrections, ICE-SOC+SSC
  Marvin Lechner         : AUTO-CI (C++ implementation), FIC-MRCC        
  Spencer Leger          : CASSCF response                               
  Dagmar Lenk            : GEPOL surface, SMD, ORCA-2-JSON               
  Dimitrios Liakos       : Extrapolation schemes; Compound Job, Property file
  Dimitrios Manganas     : Further ROCIS development; embedding schemes. LFT, Crystal Embedding 
  Dimitrios Pantazis     : SARC Basis sets                               
  Anastasios Papadopoulos: AUTO-CI, single reference methods and gradients 
  Taras Petrenko         : pre 6.0 DFT Hessian and TD-DFT gradient,  ECA, NRVS 
  Petra Pikulova         : Analytic Raman intensities                    
  Peter Pinski           : DLPNO-MP2, DLPNO-MP2 Gradient                 
  Shashank Vittal Rao    : ES-AILFT, MagRelax                            
  Christoph Reimann      : Effective Core Potentials                     
  Marius Retegan         : Local ZFS, SOC                                
  Christoph Riplinger    : Optimizer, TS searches, QM/MM, DLPNO-CCSD(T), (RO)-DLPNO pert. Triples 
  Michael Roemelt        : Original ROCIS implementation, recursive CI coupling coefficients
  Masaaki Saitow         : Open-shell DLPNO-CCSD energy and density      
  Barbara Sandhoefer     : DKH picture change effects                    
  Yorick L. A. Schmerwitz: GMF and freeze-and-release deltaSCF, NEB S-IDPP initial path                    
  Kantharuban Sivalingam : CASSCF convergence/infrastructure, NEVPT2, NEVPT3, NEVPT4(SD), FIC-MRCI and CEPA variants
  Bernardo de Souza      : ESD, SOC TD-DFT                               
  Georgi L. Stoychev     : AutoAux, RI-MP2 NMR, DLPNO-MP2 response, X2C  
  Van Anh Tran           : RI-MP2 g-tensors                              
  Willem Van den Heuvel  : Paramagnetic NMR                              
  Zikuan Wang            : NOTCH, Electric field optimization            
  Frank Wennmohs         : Technical directorship and infrastructure     
  Hang Xu                : AUTO-CI-Response properties                   
                                                                         
[FACCTs GmbH]                                                            
  Markus Bursch, Nicolas Foglia, Miquel Garcia-Rates, Ingolf Harden, Hagen Neugebauer, Anastasios Papadopoulos, 
  Christoph Riplinger, Bernardo de Souza, Georgi L. Stoychev                                                    
                                                                 
  APM, various basis sets, CI-OPT, improved COSX, DLPNO-Multilevel,           
  DOCKER, DRACO, updates on ESD, Fragmentator, GOAT, IRC, LR-CPCM, L-BFGS, MBIS, meta-GGA TD-DFT gradient, ML-optimized integration grids, 
  MM, NACMEs, nearIR, NEB, NEB-TS, NL-DFT gradient (VV10), 2- and 3-layer-ONIOM, interface openCOSMO-RS, QMMM,   
  Crystal-QMMM, RESP, rigid body optimization, SF, symmetry and pop. for TD-DFT, various functionals, SOLVATOR                                   
                                                                         
[Other institutions]                                                     
  V. Asgeirsson          : NEB                                           
  Christoph Bannwarth    : sTDA-DFT, sTD-DFT, PBEh-3c, B97-3c, D3        
  Giovanni Bistoni       : ETS/NOCV, ADLD/ADEX, COVALED                  
  Martin Brehm           : Molecular dynamics                            
  Ronald Cardenas        : ETS/NOCV                                      
  Martina Colucci        : COVALED                                       
  Sebastian Ehlert       : rSCAN, r2SCAN, r2SCAN-3c, D4, dhf basis sets  
  Marvin Friede          : D4 for Fr, Ra, Ac-Lr                          
  Lars Goerigk           : TD-DFT with DH, B97 family of functionals     
  Stefan Grimme          : VdW corrections, initial TS optimization, DFT functionals, gCP, sTDA/sTD-DF 
  Waldemar Hujo          : DFT-NL                                        
  H. Jonsson             : NEB                                           
  Holger Kruse           : gCP                                           
  Marcel Mueller         : wB97X-3c, vDZP basis set                      
  Hagen Neugebauer       : wr2SCAN, Native XTB                           
  Gianluca Regni         : ADLD/ADEX                                     
  Tobias Risthaus        : pre 6.0 range-separated hybrid DFT and stability analysis
  Lukas Wittmann         : regularized MP2, r2SCAN double-hybrids, wr2SCAN        
                                                                         
We gratefully acknowledge several colleagues who have allowed us to      
interface, adapt or use parts of their codes:                            
  Ed Valeev, F. Pavosevic, A. Kumar             : LibInt (2-el integral package), F12 methods 
  Garnet Chan, S. Sharma, J. Yang, R. Olivares  : DMRG                   
  Ulf Ekstrom                                   : XCFun DFT Library      
  Mihaly Kallay                                 : mrcc  (arbitrary order and MRCC methods)
  Frank Weinhold                                : gennbo (NPA and NBO analysis)           
  Simon Mueller                                 : openCOSMO-RS                            
  Christopher J. Cramer and Donald G. Truhlar   : smd solvation model                     
  S Lehtola, MJT Oliveira, MAL Marques          : LibXC Library                           
  Liviu Ungur et al                             : ANISO software                          


 Your calculation uses the libint2 library for the computation of 2-el integrals
 For citations please refer to: http://libint.valeyev.net

 Your ORCA version has been built with support for libXC version: 7.0.0
 For citations please refer to: https://libxc.gitlab.io

 This ORCA versions uses:
   CBLAS   interface :  Fast vector & matrix operations
   LAPACKE interface :  Fast linear algebra routines
   SCALAPACK package :  Parallel linear algebra routines
   Shared memory     :  Shared parallel matrices
   BLAS/LAPACK       :  OpenBLAS 0.3.29  USE64BITINT DYNAMIC_ARCH NO_AFFINITY Zen SINGLE_THREADED
        Core in use  :  Zen
   Copyright (c) 2011-2014, The OpenBLAS Project


  ***********************************
  * Starting time: Wed Sep 10 13:36:36 2025
  * Host name:     wyk-Server
  * Process ID:    2301137
  * Working dir.:  /home/wyk/Documents/code/openQDC/MGMR/singlepointcalc/76/prod
  ***********************************

Your calculation utilizes the atom-pairwise dispersion correction
with the Becke-Johnson damping scheme (D3BJ)


Warning: RI is on but no J-basis has been assigned. Assigning Def2/J (nothing to worry about!)
================================================================================

----- Orbital basis set information -----
Your calculation utilizes the basis: def2-SVP
   F. Weigend and R. Ahlrichs, Phys. Chem. Chem. Phys. 7, 3297 (2005).

----- AuxJ basis set information -----
Your calculation utilizes the auxiliary basis: def2/J
   H-Rn: F. Weigend, Phys. Chem. Chem. Phys. 8, 1057 (2006).
   Fr-Lr: K. Eichkorn, F. Weigend, O. Treutler, R. Ahlrichs; Theor. Chem. Acc. 97, 119 (1997).

================================================================================
                                        WARNINGS
                       Please study these warnings very carefully!
================================================================================


================================================================================
                                       INPUT FILE
================================================================================
NAME = orca.inp
|  1> ! B3LYP def2-SVP d3 EnGrad 
|  2> %pal nprocs 6 end 
|  3> *xyz 0 1 
|  4> C   2.18925602076157 -0.44727787280226 0.0737159492464
|  5> C   1.69761926350966 0.96186547965876 -0.15188145201285
|  6> C   0.78177739110238 -0.20884670997462 -0.40655947964318
|  7> C   -0.40096932885937 -0.46393885638094 0.51223793603377
|  8> C   -1.59849371869457 0.37541966102992 0.1632509009515
|  9> C   -2.802149429344 -0.09548366788658 -0.17355258813773
| 10> H   2.08697404837501 1.51948764468688 -1.00837005839516
| 11> H   2.32376142076262 -0.78407748798537 1.10670818391478
| 12> H   2.91637747115921 -0.86323220524075 -0.62946112977534
| 13> H   1.49797089362756 1.58014785951882 0.72950559705558
| 14> H   -1.43446049642862 1.46124140233109 0.17752503081161
| 15> H   -3.63073893842843 0.57258632634538 -0.4254006589763
| 16> H   -3.00479901430184 -1.17195545574006 -0.20712696522347
| 17> H   -0.67353736854489 -1.53343950710693 0.49083864739949
| 18> H   -0.08846518646412 -0.23921674822154 1.54980540753931
| 19> H   0.58285597176783 -0.44092386223175 -1.45915932078844
| 20> *
| 21> 
| 22>                          ****END OF INPUT****
================================================================================

                     *******************************
                     * Energy+Gradient Calculation *
                     *******************************

---------------------------------
CARTESIAN COORDINATES (ANGSTROEM)
---------------------------------
  C      2.189256   -0.447278    0.073716
  C      1.697619    0.961865   -0.151881
  C      0.781777   -0.208847   -0.406559
  C     -0.400969   -0.463939    0.512238
  C     -1.598494    0.375420    0.163251
  C     -2.802149   -0.095484   -0.173553
  H      2.086974    1.519488   -1.008370
  H      2.323761   -0.784077    1.106708
  H      2.916377   -0.863232   -0.629461
  H      1.497971    1.580148    0.729506
  H     -1.434460    1.461241    0.177525
  H     -3.630739    0.572586   -0.425401
  H     -3.004799   -1.171955   -0.207127
  H     -0.673537   -1.533440    0.490839
  H     -0.088465   -0.239217    1.549805
  H      0.582856   -0.440924   -1.459159

----------------------------
CARTESIAN COORDINATES (A.U.)
----------------------------
  NO LB      ZA    FRAG     MASS         X           Y           Z
   0 C     6.0000    0    12.011    4.137094   -0.845233    0.139303
   1 C     6.0000    0    12.011    3.208035    1.817662   -0.287014
   2 C     6.0000    0    12.011    1.477345   -0.394663   -0.768286
   3 C     6.0000    0    12.011   -0.757722   -0.876717    0.967989
   4 C     6.0000    0    12.011   -3.020715    0.709440    0.308499
   5 C     6.0000    0    12.011   -5.295295   -0.180438   -0.327967
   6 H     1.0000    0     1.008    3.943809    2.871416   -1.905543
   7 H     1.0000    0     1.008    4.391273   -1.481692    2.091375
   8 H     1.0000    0     1.008    5.511155   -1.631272   -1.189509
   9 H     1.0000    0     1.008    2.830755    2.986047    1.378566
  10 H     1.0000    0     1.008   -2.710737    2.761346    0.335474
  11 H     1.0000    0     1.008   -6.861102    1.082031   -0.803891
  12 H     1.0000    0     1.008   -5.678247   -2.214675   -0.391413
  13 H     1.0000    0     1.008   -1.272801   -2.897781    0.927551
  14 H     1.0000    0     1.008   -0.167175   -0.452054    2.928708
  15 H     1.0000    0     1.008    1.101438   -0.833225   -2.757412

--------------------------------
INTERNAL COORDINATES (ANGSTROEM)
--------------------------------
 C      0   0   0     0.000000000000     0.00000000     0.00000000
 C      1   0   0     1.509399177263     0.00000000     0.00000000
 C      1   2   0     1.506157362280    60.01151007     0.00000000
 C      3   1   2     1.519259851965   120.53549403   250.62243339
 C      4   3   1     1.503455797706   112.70387339   153.42514844
 C      5   4   3     1.335654747765   125.41530188   120.76704562
 H      2   1   3     1.093669218864   118.49542971   251.56525870
 H      1   2   3     1.094805297896   117.92016410   252.48372432
 H      1   2   3     1.093700879932   118.39245258   108.26396311
 H      2   1   3     1.094977489772   117.78981291   107.46277653
 H      5   4   3     1.098234721120   115.46698715   301.92149376
 H      6   5   4     1.093757533708   121.69590251   180.55963781
 H      6   5   4     1.095894886896   121.37804782     0.73828343
 H      4   3   1     1.103894427794   110.07039127   276.44494938
 H      4   3   1     1.106663961117   108.24464412    32.51819276
 H      3   1   2     1.096082096035   116.25073503   106.15221940

---------------------------
INTERNAL COORDINATES (A.U.)
---------------------------
 C      0   0   0     0.000000000000     0.00000000     0.00000000
 C      1   0   0     2.852351071792     0.00000000     0.00000000
 C      1   2   0     2.846224929298    60.01151007     0.00000000
 C      3   1   2     2.870985046476   120.53549403   250.62243339
 C      4   3   1     2.841119712120   112.70387339   153.42514844
 C      5   4   3     2.524021682747   125.41530188   120.76704562
 H      2   1   3     2.066735304753   118.49542971   251.56525870
 H      1   2   3     2.068882182990   117.92016410   252.48372432
 H      1   2   3     2.066795135500   118.39245258   108.26396311
 H      2   1   3     2.069207578478   117.78981291   107.46277653
 H      5   4   3     2.075362853679   115.46698715   301.92149376
 H      6   5   4     2.066902195621   121.69590251   180.55963781
 H      6   5   4     2.070941207798   121.37804782     0.73828343
 H      4   3   1     2.086058149293   110.07039127   276.44494938
 H      4   3   1     2.091291808792   108.24464412    32.51819276
 H      3   1   2     2.071294981801   116.25073503   106.15221940

---------------------
BASIS SET INFORMATION
---------------------
There are 2 groups of distinct atoms

 Group   1 Type C   : 7s4p1d contracted to 3s2p1d pattern {511/31/1}
 Group   2 Type H   : 4s1p contracted to 2s1p pattern {31/1}

Atom   0C    basis set group =>   1
Atom   1C    basis set group =>   1
Atom   2C    basis set group =>   1
Atom   3C    basis set group =>   1
Atom   4C    basis set group =>   1
Atom   5C    basis set group =>   1
Atom   6H    basis set group =>   2
Atom   7H    basis set group =>   2
Atom   8H    basis set group =>   2
Atom   9H    basis set group =>   2
Atom  10H    basis set group =>   2
Atom  11H    basis set group =>   2
Atom  12H    basis set group =>   2
Atom  13H    basis set group =>   2
Atom  14H    basis set group =>   2
Atom  15H    basis set group =>   2
---------------------------------
AUXILIARY/J BASIS SET INFORMATION
---------------------------------
There are 2 groups of distinct atoms

 Group   1 Type C   : 12s5p4d2f1g contracted to 6s4p3d1f1g pattern {711111/2111/211/2/1}
 Group   2 Type H   : 5s2p1d contracted to 3s1p1d pattern {311/2/1}

Atom   0C    basis set group =>   1
Atom   1C    basis set group =>   1
Atom   2C    basis set group =>   1
Atom   3C    basis set group =>   1
Atom   4C    basis set group =>   1
Atom   5C    basis set group =>   1
Atom   6H    basis set group =>   2
Atom   7H    basis set group =>   2
Atom   8H    basis set group =>   2
Atom   9H    basis set group =>   2
Atom  10H    basis set group =>   2
Atom  11H    basis set group =>   2
Atom  12H    basis set group =>   2
Atom  13H    basis set group =>   2
Atom  14H    basis set group =>   2
Atom  15H    basis set group =>   2


           ************************************************************
           *        Program running with 6 parallel MPI-processes     *
           *              working on a common directory               *
           ************************************************************
------------------------------------------------------------------------------
                             ORCA STARTUP CALCULATIONS
                           -- RI-GTO INTEGRALS CHOSEN --
------------------------------------------------------------------------------
------------------------------------------------------------------------------
                   ___                                                        
                  /   \      - P O W E R E D   B Y -                         
                 /     \                                                     
                 |  |  |   _    _      __       _____    __    __             
                 |  |  |  | |  | |    /  \     |  _  \  |  |  /  |          
                  \  \/   | |  | |   /    \    | | | |  |  | /  /          
                 / \  \   | |__| |  /  /\  \   | |_| |  |  |/  /          
                |  |  |   |  __  | /  /__\  \  |    /   |      \           
                |  |  |   | |  | | |   __   |  |    \   |  |\   \          
                \     /   | |  | | |  |  |  |  | |\  \  |  | \   \       
                 \___/    |_|  |_| |__|  |__|  |_| \__\ |__|  \__/        
                                                                              
                      - O R C A' S   B I G   F R I E N D -                    
                                      &                                       
                       - I N T E G R A L  F E E D E R -                       
                                                                              
 v1 FN, 2020, v2 2021, v3 2022-2024                                           
------------------------------------------------------------------------------


----------------------
SHARK INTEGRAL PACKAGE
----------------------

Number of atoms                             ...     16
Number of basis functions                   ...    134
Number of shells                            ...     66
Maximum angular momentum                    ...      2
Integral batch strategy                     ... SHARK/LIBINT Hybrid
RI-J (if used) integral strategy            ... SPLIT-RIJ (Revised 2003 algorithm where possible)
Printlevel                                  ...      1
Contraction scheme used                     ... SEGMENTED contraction
Prescreening option                         ... SCHWARTZ
   Thresh                                   ... 2.500e-11
   Tcut                                     ... 2.500e-12
   Tpresel                                  ... 2.500e-12 
Coulomb Range Separation                    ... NOT USED
Exchange Range Separation                   ... NOT USED
Multipole approximations                    ... NOT USED
Finite Nucleus Model                        ... NOT USED
CABS basis                                  ... NOT available
Auxiliary Coulomb fitting basis             ... AVAILABLE
   # of basis functions in Aux-J            ...    404
   # of shells in Aux-J                     ...    140
   Maximum angular momentum in Aux-J        ...      4
Auxiliary J/K fitting basis                 ... NOT available
Auxiliary Correlation fitting basis         ... NOT available
Auxiliary 'external' fitting basis          ... NOT available

Checking pre-screening integrals            ... done (  0.0 sec) Dimension = 66
   => SHARK Basis and OBASIS are compatible. Storing Pre-screening
Shell pair information
Shell pair cut-off parameter TPreSel        ...   2.5e-12
Total number of shell pairs                 ...      2211
Shell pairs after pre-screening             ...      2104
Total number of primitive shell pairs       ...      7611
Primitive shell pairs kept                  ...      5602
          la=0 lb=0:    712 shell pairs
          la=1 lb=0:    793 shell pairs
          la=1 lb=1:    237 shell pairs
          la=2 lb=0:    218 shell pairs
          la=2 lb=1:    124 shell pairs
          la=2 lb=2:     20 shell pairs

Checking whether 4 symmetric matrices of dimension 134 fit in memory
:Max Core in MB      =   4096.00
 MB in use           =      5.99
 MB left             =   4090.01
 MB needed           =      0.28
 Data fit in memory  = YES
Calculating RI/J V-Matrix + Cholesky decomp.... done (  0.0 sec)
Calculating Nuclear repulsion               ... done (  0.0 sec) ENN=    221.515775697514 Eh

Diagonalization of the overlap matrix:
Smallest eigenvalue                        ... 1.607e-03
Time for diagonalization                   ...    0.003 sec
Threshold for overlap eigenvalues          ... 1.000e-07
Number of eigenvalues below threshold      ... 0
Time for construction of square roots      ...    0.001 sec
Total time needed                          ...    0.005 sec

-------------------
DFT GRID GENERATION
-------------------

General Integration Accuracy     IntAcc      ... 4.388
Radial Grid Type                 RadialGrid  ... OptM3 with GC (2021)
Angular Grid (max. ang.)         AngularGrid ... 4 (Lebedev-302)
Angular grid pruning method      GridPruning ... 4 (adaptive)
Weight generation scheme         WeightScheme... mBecke (2022)
Basis function cutoff            BFCut       ... 1.0000e-11
Integration weight cutoff        WCut        ... 1.0000e-14
Partially contracted basis set               ... off
Rotationally invariant grid construction     ... off
Angular grids for H and He will be reduced by one unit

Total number of grid points                  ...    68363
Total number of batches                      ...     1073
Average number of points per batch           ...       63
Average number of grid points per atom       ...     4273

--------------------
COSX GRID GENERATION
--------------------

GRIDX 1
-------
General Integration Accuracy     IntAcc      ... 3.816
Radial Grid Type                 RadialGrid  ... OptM3 with GC (2021)
Angular Grid (max. ang.)         AngularGrid ... 1 (Lebedev-50)
Angular grid pruning method      GridPruning ... 4 (adaptive)
Weight generation scheme         WeightScheme... mBecke (2022)
Basis function cutoff            BFCut       ... 1.0000e-11
Integration weight cutoff        WCut        ... 1.0000e-14
Partially contracted basis set               ... on
Rotationally invariant grid construction     ... off
Angular grids for H and He will be reduced by one unit

Total number of grid points                  ...     8800
Total number of batches                      ...       80
Average number of points per batch           ...      110
Average number of grid points per atom       ...      550
UseSFitting                                  ... on

GRIDX 2
-------
General Integration Accuracy     IntAcc      ... 4.020
Radial Grid Type                 RadialGrid  ... OptM3 with GC (2021)
Angular Grid (max. ang.)         AngularGrid ... 2 (Lebedev-110)
Angular grid pruning method      GridPruning ... 4 (adaptive)
Weight generation scheme         WeightScheme... mBecke (2022)
Basis function cutoff            BFCut       ... 1.0000e-11
Integration weight cutoff        WCut        ... 1.0000e-14
Partially contracted basis set               ... on
Rotationally invariant grid construction     ... off
Angular grids for H and He will be reduced by one unit

Total number of grid points                  ...    18488
Total number of batches                      ...      154
Average number of points per batch           ...      120
Average number of grid points per atom       ...     1156
UseSFitting                                  ... on

GRIDX 3
-------
General Integration Accuracy     IntAcc      ... 4.338
Radial Grid Type                 RadialGrid  ... OptM3 with GC (2021)
Angular Grid (max. ang.)         AngularGrid ... 3 (Lebedev-194)
Angular grid pruning method      GridPruning ... 4 (adaptive)
Weight generation scheme         WeightScheme... mBecke (2022)
Basis function cutoff            BFCut       ... 1.0000e-11
Integration weight cutoff        WCut        ... 1.0000e-14
Partially contracted basis set               ... on
Rotationally invariant grid construction     ... off
Angular grids for H and He will be reduced by one unit

Total number of grid points                  ...    40418
Total number of batches                      ...      324
Average number of points per batch           ...      124
Average number of grid points per atom       ...     2526
UseSFitting                                  ... on
Grids setup in   0.9 sec
Initializing property integral containers    ... done (  0.0 sec)

SHARK setup successfully completed in   1.0 seconds

Maximum memory used throughout the entire STARTUP-calculation: 18.2 MB


           ************************************************************
           *        Program running with 6 parallel MPI-processes     *
           *              working on a common directory               *
           ************************************************************
-------------------------------------------------------------------------------
                                 ORCA GUESS
                   Start orbitals & Density for SCF / CASSCF
-------------------------------------------------------------------------------

------------
SCF SETTINGS
------------
Hamiltonian:
 Density Functional     Method          .... DFT(GTOs)
 Exchange Functional    Exchange        .... B88
   X-Alpha parameter    XAlpha          ....  0.666667
   Becke's b parameter  XBeta           ....  0.004200
 Correlation Functional Correlation     .... LYP
 LDA part of GGA corr.  LDAOpt          .... VWN-5
 Gradients option       PostSCFGGA      .... off
 Hybrid DFT is turned on
   Fraction HF Exchange ScalHFX         ....  0.200000
   Scaling of DF-GGA-X  ScalDFX         ....  0.720000
   Scaling of DF-GGA-C  ScalDFC         ....  0.810000
   Scaling of DF-LDA-C  ScalLDAC        ....  1.000000
   Perturbative correction              ....  0.000000
   NL short-range parameter             ....  4.800000
 RI-approximation to the Coulomb term is turned on
   Number of AuxJ basis functions       .... 404
   RIJ-COSX (HFX calculated with COS-X)).... on


General Settings:
 Integral files         IntName         .... orca
 Hartree-Fock type      HFTyp           .... RHF
 Total Charge           Charge          ....    0
 Multiplicity           Mult            ....    1
 Number of Electrons    NEL             ....   46
 Basis Dimension        Dim             ....  134
 Nuclear Repulsion      ENuc            ....    221.5157756975 Eh

Convergence Acceleration:
 AO-DIIS                CNVDIIS         .... on
   Start iteration      DIISMaxIt       ....    12
   Startup error        DIISStart       ....  0.200000
   # of expansion vecs  DIISMaxEq       ....     5
   Bias factor          DIISBfac        ....   1.050
   Max. coefficient     DIISMaxC        ....  10.000
 MO-DIIS                CNVKDIIS        .... off
 Trust-Rad. Augm. Hess. CNVTRAH         .... auto
   Auto Start mean grad. ratio tolernc. ....  1.125000
   Auto Start start iteration           ....    50
   Auto Start num. interpolation iter.  ....    10
   Max. Number of Micro iterations      ....    24
   Max. Number of Macro iterations      .... Maxiter - #DIIS iter
   Number of Davidson start vectors     ....     2
   Converg. threshold    (grad. norm)   ....   1.000e-05
   Grad. Scal. Fac. for Micro threshold ....   0.100
   Minimum threshold for Micro iter.    ....   1.000e-02
   NR start threshold (gradient norm)   ....   1.000e-04
   Initial trust radius                 ....   0.400
   Minimum AH scaling param. (alpha)    ....   1.000
   Maximum AH scaling param. (alpha)    .... 1000.000
   Quad. conv. algorithm                .... NR
   White noise on init. David. guess    .... on
   Maximum white noise                  ....   0.010
   Pseudo random numbers                .... off
   Inactive MOs                         .... canonical
   Orbital update algorithm             .... Taylor
   Preconditioner                       .... Diag
   Full preconditioner red. dimension   ....   250
 SOSCF                 CNVSOSCF           .... on
   Start iteration     SOSCFMaxIt         ....   150
   Startup grad/error  SOSCFStart         ....  0.003300
   Hessian update      SOSCFHessUp        .... L-BFGS
   Autom. constraints  SOSCFAutoConstrain .... off
 Level Shifting         CNVShift        .... on
   Level shift para.    LevelShift      ....    0.2500
   Turn off err/grad.   ShiftErr        ....    0.0010
 Zerner damping         CNVZerner       .... off
 Static damping         CNVDamp         .... on
   Fraction old density DampFac         ....    0.7000
   Max. Damping (<1)    DampMax         ....    0.9800
   Min. Damping (>=0)   DampMin         ....    0.0000
   Turn off err/grad.   DampErr         ....    0.1000

SCF Procedure:
 Maximum # iterations   MaxIter         ....   125
 SCF integral mode      SCFMode         .... Direct
   Integral package                     .... SHARK and LIBINT hybrid scheme
 Reset frequency        DirectResetFreq ....    20
 Integral Threshold     Thresh          ....  2.500e-11 Eh
 Primitive CutOff       TCut            ....  2.500e-12 Eh

Convergence Tolerance:
 Convergence Check Mode ConvCheckMode   .... Total+1el-Energy
 Convergence forced     ConvForced      .... 0
 Energy Change          TolE            ....  1.000e-08 Eh
 1-El. energy change                    ....  1.000e-05 Eh
 Orbital Gradient       TolG            ....  1.000e-05
 Orbital Rotation angle TolX            ....  1.000e-05
 DIIS Error             TolErr          ....  5.000e-07

------------------------------
INITIAL GUESS: MODEL POTENTIAL
------------------------------
Loading Hartree-Fock densities                     ... done
Calculating cut-offs                               ... done
Initializing the effective Hamiltonian             ... done
Setting up the integral package (SHARK)            ... done
Starting the Coulomb interaction                   ... done (   0.0 sec)
Making the grid                                    ... done (   0.1 sec)
Mapping shells                                     ... done
Starting the XC term evaluation                    ... done (   0.0 sec)
  promolecular density results
     # of electrons  =     45.997866076
     EX              =    -33.791215109
     EC              =     -1.471472860
     EX+EC           =    -35.262687969
Transforming the Hamiltonian                       ... done (   0.0 sec)
Diagonalizing the Hamiltonian                      ... done (   0.0 sec)
Back transforming the eigenvectors                 ... done (   0.0 sec)
Now organizing SCF variables                       ... done
                      ------------------
                      INITIAL GUESS DONE (   0.2 sec)
                      ------------------
             **** ENERGY FILE WAS UPDATED (orca.en.tmp) ****
Finished Guess after   0.4 sec
Maximum memory used throughout the entire GUESS-calculation: 8.5 MB


           ************************************************************
           *        Program running with 6 parallel MPI-processes     *
           *              working on a common directory               *
           ************************************************************

-------------------------------------------------------------------------------------------
                                      ORCA LEAN-SCF
                              memory conserving SCF solver
-------------------------------------------------------------------------------------------

----------------------------------------D-I-I-S--------------------------------------------
Iteration    Energy (Eh)           Delta-E    RMSDP     MaxDP     DIISErr   Damp  Time(sec)
-------------------------------------------------------------------------------------------
               ***  Starting incremental Fock matrix formation  ***
    1    -234.0892576502079407     0.00e+00  8.19e-03  6.75e-02  1.54e-01  0.700   0.9
    2    -234.1710690322006769    -8.18e-02  5.96e-03  4.26e-02  8.51e-02  0.700   0.5
                               ***Turning on AO-DIIS***
    3    -234.2059095237173381    -3.48e-02  2.46e-03  1.39e-02  3.57e-02  0.700   0.5
    4    -234.2257657708089766    -1.99e-02  4.37e-03  2.36e-02  1.76e-02  0.000   0.5
    5    -234.2683101341699796    -4.25e-02  7.21e-04  3.95e-03  6.56e-03  0.000   0.5
                              *** Initializing SOSCF ***
---------------------------------------S-O-S-C-F--------------------------------------
Iteration    Energy (Eh)           Delta-E    RMSDP     MaxDP     MaxGrad    Time(sec)
--------------------------------------------------------------------------------------
    6    -234.2685656428173786    -2.56e-04  2.80e-04  1.43e-03  1.50e-03     0.5
               *** Restarting incremental Fock matrix formation ***
    7    -234.2686100194577818    -4.44e-05  1.93e-04  1.31e-03  2.55e-04     0.8
    8    -234.2686096431373528     3.76e-07  6.40e-05  9.50e-04  4.93e-04     0.7
    9    -234.2686120954918749    -2.45e-06  4.05e-05  3.84e-04  1.20e-04     0.6
   10    -234.2686119982464845     9.72e-08  2.19e-05  2.00e-04  9.87e-05     0.6
   11    -234.2686122371232216    -2.39e-07  2.17e-06  2.40e-05  3.29e-06     0.5
   12    -234.2686122398642112    -2.74e-09  1.05e-06  1.31e-05  3.78e-06     0.4
                 **** Energy Check signals convergence ****

               *****************************************************
               *                     SUCCESS                       *
               *           SCF CONVERGED AFTER  12 CYCLES          *
               *****************************************************

Recomputing exchange energy using gridx3       ... done (    1.213 sec)
Old exchange energy                            :     -6.911891383 Eh
New exchange energy                            :     -6.911862028 Eh
Exchange energy change after final integration :      0.000029356 Eh
Total energy after final integration           :   -234.268582883 Eh
             **** ENERGY FILE WAS UPDATED (orca.en.tmp) ****

----------------
TOTAL SCF ENERGY
----------------

Total Energy       :       -234.26858288286260 Eh           -6374.77223 eV

Components:
Nuclear Repulsion  :        221.51577569751433 Eh            6027.75070 eV
Electronic Energy  :       -455.78438793605744 Eh          -12402.52373 eV
One Electron Energy:       -752.26868598196938 Eh          -20470.27163 eV
Two Electron Energy:        296.48429804591194 Eh            8067.74791 eV

Virial components:
Potential Energy   :       -465.67933518195997 Eh          -12671.77893 eV
Kinetic Energy     :        231.41075229909737 Eh            6297.00670 eV
Virial Ratio       :          2.01234960154346

DFT components:
N(Alpha)           :       23.000002881788 electrons
N(Beta)            :       23.000002881788 electrons
N(Total)           :       46.000005763575 electrons
E(X)               :      -27.386126195346 Eh       
E(C)               :       -1.748342224749 Eh       
E(XC)              :      -29.134468420095 Eh       

---------------
SCF CONVERGENCE
---------------

  Last Energy change         ...    2.7410e-09  Tolerance :   1.0000e-08
  Last MAX-Density change    ...    1.3133e-05  Tolerance :   1.0000e-07
  Last RMS-Density change    ...    1.0453e-06  Tolerance :   5.0000e-09
  Last DIIS Error            ...    1.5027e-03  Tolerance :   5.0000e-07
  Last Orbital Gradient      ...    3.7765e-06  Tolerance :   1.0000e-05
  Last Orbital Rotation      ...    4.0234e-06  Tolerance :   1.0000e-05


----------------
ORBITAL ENERGIES
----------------

  NO   OCC          E(Eh)            E(eV) 
   0   2.0000     -10.189731      -277.2767 
   1   2.0000     -10.186208      -277.1808 
   2   2.0000     -10.184523      -277.1350 
   3   2.0000     -10.184395      -277.1315 
   4   2.0000     -10.184190      -277.1259 
   5   2.0000     -10.176042      -276.9042 
   6   2.0000      -0.851733       -23.1768 
   7   2.0000      -0.772441       -21.0192 
   8   2.0000      -0.683288       -18.5932 
   9   2.0000      -0.589286       -16.0353 
  10   2.0000      -0.566871       -15.4253 
  11   2.0000      -0.539595       -14.6831 
  12   2.0000      -0.493911       -13.4400 
  13   2.0000      -0.461631       -12.5616 
  14   2.0000      -0.443211       -12.0604 
  15   2.0000      -0.423656       -11.5283 
  16   2.0000      -0.374342       -10.1864 
  17   2.0000      -0.360180        -9.8010 
  18   2.0000      -0.355815        -9.6822 
  19   2.0000      -0.347000        -9.4424 
  20   2.0000      -0.291225        -7.9246 
  21   2.0000      -0.283781        -7.7221 
  22   2.0000      -0.254475        -6.9246 
  23   0.0000       0.016082         0.4376 
  24   0.0000       0.068469         1.8631 
  25   0.0000       0.074819         2.0359 
  26   0.0000       0.090222         2.4551 
  27   0.0000       0.095887         2.6092 
  28   0.0000       0.117226         3.1899 
  29   0.0000       0.127322         3.4646 
  30   0.0000       0.144107         3.9213 
  31   0.0000       0.147800         4.0218 
  32   0.0000       0.161528         4.3954 
  33   0.0000       0.165563         4.5052 
*Only the first 10 virtual orbitals were printed.

                    ********************************
                    * MULLIKEN POPULATION ANALYSIS *
                    ********************************

-----------------------
MULLIKEN ATOMIC CHARGES
-----------------------
   0 C :   -0.014103
   1 C :   -0.027185
   2 C :   -0.140117
   3 C :    0.174368
   4 C :   -0.072217
   5 C :   -0.033538
   6 H :    0.024898
   7 H :    0.019956
   8 H :    0.024463
   9 H :    0.021544
  10 H :   -0.003098
  11 H :    0.017568
  12 H :    0.009923
  13 H :   -0.005015
  14 H :   -0.010675
  15 H :    0.013228
Sum of atomic charges:   -0.0000000

--------------------------------
MULLIKEN REDUCED ORBITAL CHARGES
--------------------------------
  0 C s       :     3.052003  s :     3.052003
      pz      :     0.972371  p :     2.925791
      px      :     0.957275
      py      :     0.996145
      dz2     :     0.006722  d :     0.036309
      dxz     :     0.006595
      dyz     :     0.005394
      dx2y2   :     0.009331
      dxy     :     0.008267

  1 C s       :     3.064691  s :     3.064691
      pz      :     0.986444  p :     2.926299
      px      :     1.045325
      py      :     0.894530
      dz2     :     0.005428  d :     0.036195
      dxz     :     0.003420
      dyz     :     0.009537
      dx2y2   :     0.008159
      dxy     :     0.009651

  2 C s       :     3.166232  s :     3.166232
      pz      :     1.002936  p :     2.928445
      px      :     0.887725
      py      :     1.037785
      dz2     :     0.009946  d :     0.045439
      dxz     :     0.009372
      dyz     :     0.004313
      dx2y2   :     0.010732
      dxy     :     0.011076

  3 C s       :     2.926254  s :     2.926254
      pz      :     0.972637  p :     2.862700
      px      :     0.918308
      py      :     0.971755
      dz2     :     0.008823  d :     0.036678
      dxz     :     0.008152
      dyz     :     0.002840
      dx2y2   :     0.008739
      dxy     :     0.008124

  4 C s       :     3.164346  s :     3.164346
      pz      :     0.968549  p :     2.871995
      px      :     0.959714
      py      :     0.943733
      dz2     :     0.003575  d :     0.035876
      dxz     :     0.007496
      dyz     :     0.001943
      dx2y2   :     0.012907
      dxy     :     0.009954

  5 C s       :     3.105317  s :     3.105317
      pz      :     1.019955  p :     2.901626
      px      :     0.968120
      py      :     0.913551
      dz2     :     0.002265  d :     0.026596
      dxz     :     0.004557
      dyz     :     0.001339
      dx2y2   :     0.009174
      dxy     :     0.009262

  6 H s       :     0.952231  s :     0.952231
      pz      :     0.010359  p :     0.022871
      px      :     0.006191
      py      :     0.006321

  7 H s       :     0.957185  s :     0.957185
      pz      :     0.013127  p :     0.022860
      px      :     0.004308
      py      :     0.005424

  8 H s       :     0.952670  s :     0.952670
      pz      :     0.008151  p :     0.022867
      px      :     0.008758
      py      :     0.005957

  9 H s       :     0.955556  s :     0.955556
      pz      :     0.010709  p :     0.022899
      px      :     0.005195
      py      :     0.006995

 10 H s       :     0.980666  s :     0.980666
      pz      :     0.004339  p :     0.022432
      px      :     0.003827
      py      :     0.014266

 11 H s       :     0.959118  s :     0.959118
      pz      :     0.005276  p :     0.023315
      px      :     0.010039
      py      :     0.008000

 12 H s       :     0.966769  s :     0.966769
      pz      :     0.004701  p :     0.023309
      px      :     0.004453
      py      :     0.014155

 13 H s       :     0.982726  s :     0.982726
      pz      :     0.004458  p :     0.022289
      px      :     0.004496
      py      :     0.013334

 14 H s       :     0.987903  s :     0.987903
      pz      :     0.012887  p :     0.022771
      px      :     0.004861
      py      :     0.005023

 15 H s       :     0.964814  s :     0.964814
      pz      :     0.013323  p :     0.021958
      px      :     0.003465
      py      :     0.005170



                     *******************************
                     * LOEWDIN POPULATION ANALYSIS *
                     *******************************

----------------------
LOEWDIN ATOMIC CHARGES
----------------------
   0 C :   -0.041490
   1 C :   -0.043883
   2 C :   -0.036299
   3 C :   -0.023129
   4 C :   -0.022237
   5 C :   -0.067272
   6 H :    0.024287
   7 H :    0.022169
   8 H :    0.024331
   9 H :    0.021377
  10 H :    0.022643
  11 H :    0.022356
  12 H :    0.019090
  13 H :    0.026030
  14 H :    0.028214
  15 H :    0.023813

-------------------------------
LOEWDIN REDUCED ORBITAL CHARGES
-------------------------------
  0 C s       :     2.828852  s :     2.828852
      pz      :     1.053917  p :     3.122666
      px      :     1.022585
      py      :     1.046163
      dz2     :     0.018024  d :     0.089972
      dxz     :     0.017330
      dyz     :     0.013173
      dx2y2   :     0.021980
      dxy     :     0.019465

  1 C s       :     2.829610  s :     2.829610
      pz      :     1.064952  p :     3.124410
      px      :     1.095619
      py      :     0.963838
      dz2     :     0.013938  d :     0.089863
      dxz     :     0.007900
      dyz     :     0.025695
      dx2y2   :     0.019339
      dxy     :     0.022991

  2 C s       :     2.830841  s :     2.830841
      pz      :     1.047174  p :     3.096557
      px      :     0.971153
      py      :     1.078231
      dz2     :     0.025124  d :     0.108901
      dxz     :     0.024504
      dyz     :     0.009161
      dx2y2   :     0.025306
      dxy     :     0.024806

  3 C s       :     2.834796  s :     2.834796
      pz      :     1.037041  p :     3.095450
      px      :     1.011108
      py      :     1.047302
      dz2     :     0.022273  d :     0.092883
      dxz     :     0.021619
      dyz     :     0.006155
      dx2y2   :     0.021826
      dxy     :     0.021010

  4 C s       :     2.881908  s :     2.881908
      pz      :     0.949900  p :     3.051595
      px      :     1.058712
      py      :     1.042983
      dz2     :     0.007760  d :     0.088735
      dxz     :     0.015484
      dyz     :     0.004386
      dx2y2   :     0.033331
      dxy     :     0.027773

  5 C s       :     2.887222  s :     2.887222
      pz      :     1.007266  p :     3.110543
      px      :     1.061306
      py      :     1.041971
      dz2     :     0.005363  d :     0.069506
      dxz     :     0.010010
      dyz     :     0.003204
      dx2y2   :     0.025315
      dxy     :     0.025614

  6 H s       :     0.907905  s :     0.907905
      pz      :     0.030039  p :     0.067808
      px      :     0.019621
      py      :     0.018147

  7 H s       :     0.910029  s :     0.910029
      pz      :     0.038135  p :     0.067802
      px      :     0.013131
      py      :     0.016536

  8 H s       :     0.907820  s :     0.907820
      pz      :     0.023664  p :     0.067849
      px      :     0.026131
      py      :     0.018054

  9 H s       :     0.910784  s :     0.910784
      pz      :     0.031383  p :     0.067840
      px      :     0.016539
      py      :     0.019918

 10 H s       :     0.911549  s :     0.911549
      pz      :     0.013258  p :     0.065807
      px      :     0.011398
      py      :     0.041152

 11 H s       :     0.910687  s :     0.910687
      pz      :     0.016202  p :     0.066957
      px      :     0.027705
      py      :     0.023050

 12 H s       :     0.914221  s :     0.914221
      pz      :     0.014463  p :     0.066689
      px      :     0.011309
      py      :     0.040918

 13 H s       :     0.910678  s :     0.910678
      pz      :     0.011670  p :     0.063292
      px      :     0.013173
      py      :     0.038448

 14 H s       :     0.908091  s :     0.908091
      pz      :     0.036711  p :     0.063695
      px      :     0.014090
      py      :     0.012895

 15 H s       :     0.908416  s :     0.908416
      pz      :     0.039082  p :     0.067772
      px      :     0.011974
      py      :     0.016716



                      *****************************
                      * MAYER POPULATION ANALYSIS *
                      *****************************

  NA   - Mulliken gross atomic population
  ZA   - Total nuclear charge
  QA   - Mulliken gross atomic charge
  VA   - Mayer's total valence
  BVA  - Mayer's bonded valence
  FA   - Mayer's free valence

  ATOM       NA         ZA         QA         VA         BVA        FA
  0 C      6.0141     6.0000    -0.0141     3.9490     3.9490    -0.0000
  1 C      6.0272     6.0000    -0.0272     3.9666     3.9666    -0.0000
  2 C      6.1401     6.0000    -0.1401     4.0686     4.0686    -0.0000
  3 C      5.8256     6.0000     0.1744     3.9202     3.9202     0.0000
  4 C      6.0722     6.0000    -0.0722     4.0924     4.0924     0.0000
  5 C      6.0335     6.0000    -0.0335     3.9543     3.9543    -0.0000
  6 H      0.9751     1.0000     0.0249     0.9782     0.9782     0.0000
  7 H      0.9800     1.0000     0.0200     0.9872     0.9872     0.0000
  8 H      0.9755     1.0000     0.0245     0.9785     0.9785     0.0000
  9 H      0.9785     1.0000     0.0215     0.9864     0.9864    -0.0000
 10 H      1.0031     1.0000    -0.0031     0.9826     0.9826     0.0000
 11 H      0.9824     1.0000     0.0176     0.9738     0.9738    -0.0000
 12 H      0.9901     1.0000     0.0099     0.9844     0.9844    -0.0000
 13 H      1.0050     1.0000    -0.0050     0.9860     0.9860     0.0000
 14 H      1.0107     1.0000    -0.0107     0.9871     0.9871     0.0000
 15 H      0.9868     1.0000     0.0132     0.9817     0.9817    -0.0000

  Mayer bond orders larger than 0.100000
B(  0-C ,  1-C ) :   1.0394 B(  0-C ,  2-C ) :   0.9822 B(  0-C ,  7-H ) :   0.9513 
B(  0-C ,  8-H ) :   0.9521 B(  1-C ,  2-C ) :   0.9877 B(  1-C ,  6-H ) :   0.9539 
B(  1-C ,  9-H ) :   0.9550 B(  2-C ,  3-C ) :   1.0554 B(  2-C , 15-H ) :   0.9511 
B(  3-C ,  4-C ) :   1.0463 B(  3-C , 13-H ) :   0.9308 B(  3-C , 14-H ) :   0.9080 
B(  4-C ,  5-C ) :   2.0162 B(  4-C , 10-H ) :   0.9593 B(  5-C , 11-H ) :   0.9498 
B(  5-C , 12-H ) :   0.9525 

-------
TIMINGS
-------

Total SCF time: 0 days 0 hours 0 min 8 sec 

Total time                  ....       8.898 sec
Sum of individual times     ....       8.451 sec  ( 95.0%)

SCF preparation             ....       0.183 sec  (  2.1%)
Fock matrix formation       ....       8.042 sec  ( 90.4%)
  Startup                   ....       0.005 sec  (  0.1% of F)
  Split-RI-J                ....       0.668 sec  (  8.3% of F)
  Chain of spheres X        ....       6.043 sec  ( 75.2% of F)
  XC integration            ....       1.596 sec  ( 19.8% of F)
    XC Preparation          ....       0.000 sec  (  0.0% of XC)
    Basis function eval.    ....       0.408 sec  ( 25.6% of XC)
    Density eval.           ....       0.228 sec  ( 14.3% of XC)
    XC-Functional eval.     ....       0.074 sec  (  4.7% of XC)
    XC-Potential eval.      ....       0.274 sec  ( 17.2% of XC)
Diagonalization             ....       0.000 sec  (  0.0%)
Density matrix formation    ....       0.028 sec  (  0.3%)
Total Energy calculation    ....       0.015 sec  (  0.2%)
Population analysis         ....       0.021 sec  (  0.2%)
Orbital Transformation      ....       0.019 sec  (  0.2%)
Orbital Orthonormalization  ....       0.000 sec  (  0.0%)
DIIS solution               ....       0.085 sec  (  1.0%)
SOSCF solution              ....       0.057 sec  (  0.6%)
Finished LeanSCF after   8.9 sec

Maximum memory used throughout the entire LEANSCF-calculation: 11.9 MB


-------------------------------------------------------------------------------
                          DFT DISPERSION CORRECTION                            
                                                                               
                              DFTD3 V3.1  Rev 1                                
                          USING Becke-Johnson damping                          
-------------------------------------------------------------------------------
The B3LYP functional is recognized
Active option DFTDOPT                   ...         4   

molecular C6(AA) [au] = 2001.080027 


            DFT-D V3
 parameters
 s6 scaling factor         :     1.0000 
 a1 scaling factor         :     0.3981 
 s8 scaling factor         :     1.9889 
 a2 scaling factor         :     4.4211 
 ad hoc parameters k1-k3   :    16.0000     1.3333    -4.0000 

 Edisp/kcal,au: -12.804071281458  -0.020404584225 
 E6   /kcal   :  -6.240948162 
 E8   /kcal   :  -6.563123119 
 % E8         :  51.258095764 

-------------------------   ----------------
Dispersion correction           -0.020404584
-------------------------   ----------------


-------------------------   --------------------
FINAL SINGLE POINT ENERGY      -234.288987467088
-------------------------   --------------------



           ************************************************************
           *        Program running with 6 parallel MPI-processes     *
           *              working on a common directory               *
           ************************************************************
------------------------------------------------------------------------------
                         ORCA SCF GRADIENT CALCULATION
------------------------------------------------------------------------------

Nuc. rep. gradient        (SHARK) ... done (  0.0 sec)
HCore & Overlap gradient  (SHARK) ... done (  0.0 sec)
Split-RIJ-J gradient      (SHARK) ... done (  0.2 sec)
done (  4.4 sec)
XC gradient                       ... done (  0.7 sec)
Dispersion correction             ... done (  0.0 sec)

-------------------
DISPERSION GRADIENT
-------------------

   1   C   :    0.000430792   -0.000077966   -0.000031574
   2   C   :    0.000447333    0.000220599   -0.000087318
   3   C   :    0.000278234   -0.000068686   -0.000102287
   4   C   :   -0.000167017   -0.000155431    0.000153598
   5   C   :   -0.000560723    0.000069088    0.000065633
   6   C   :   -0.000565589    0.000022372   -0.000061744
   7   H   :    0.000152402    0.000192082   -0.000109773
   8   H   :    0.000241244   -0.000106986    0.000119936
   9   H   :    0.000213415   -0.000107044   -0.000051863
  10   H   :    0.000203956    0.000255831    0.000079086
  11   H   :   -0.000241561    0.000214155    0.000030921
  12   H   :   -0.000166873    0.000029353   -0.000039208
  13   H   :   -0.000222145   -0.000082602   -0.000040512
  14   H   :   -0.000099247   -0.000239702    0.000092973
  15   H   :   -0.000048951   -0.000071784    0.000262866
  16   H   :    0.000104730   -0.000093280   -0.000280735

Difference to translation invariance:
           :   -0.0000000000   -0.0000000000    0.0000000000

Difference to rotation invariance:
           :    0.0000000000   -0.0000000000   -0.0000000000

Norm of the Dispersion gradient    ...    0.0014277585
RMS gradient                       ...    0.0002060792
MAX gradient                       ...    0.0005655885

------------------
CARTESIAN GRADIENT
------------------

   1   C   :    0.000029961    0.000041715   -0.000029543
   2   C   :   -0.000040077   -0.000004441    0.000011934
   3   C   :    0.000045886   -0.000096714    0.000024216
   4   C   :    0.000024183    0.000015222   -0.000157544
   5   C   :   -0.000014165   -0.000135409    0.000097493
   6   C   :   -0.000058040    0.000171842    0.000009220
   7   H   :    0.000011464   -0.000029595    0.000002232
   8   H   :    0.000000748    0.000002667    0.000008584
   9   H   :   -0.000011198    0.000021100    0.000006214
  10   H   :   -0.000051706   -0.000034615   -0.000009842
  11   H   :    0.000030165    0.000051450    0.000017896
  12   H   :    0.000028873   -0.000022828    0.000012078
  13   H   :   -0.000021758   -0.000080634    0.000004051
  14   H   :   -0.000002939    0.000026905    0.000005593
  15   H   :   -0.000030749    0.000072450    0.000009407
  16   H   :    0.000059352    0.000000884   -0.000011990

Difference to translation invariance:
           :   -0.0000000000    0.0000000000   -0.0000000000

Difference to rotation invariance:
           :   -0.0000490887    0.0000747480   -0.0000483920

Norm of the Cartesian gradient     ...    0.0003643360
RMS gradient                       ...    0.0000525874
MAX gradient                       ...    0.0001718420

-------
TIMINGS
-------

Total SCF gradient time     ....        5.467 sec

Densities                   ....       0.001 sec  (  0.0%)
One electron gradient       ....       0.045 sec  (  0.8%)
RI-J Coulomb gradient       ....       0.250 sec  (  4.6%)
COSX gradient               ....       4.421 sec  ( 80.9%)
XC gradient                 ....       0.714 sec  ( 13.1%)

Maximum memory used throughout the entire SCFGRAD-calculation: 28.5 MB


           ************************************************************
           *        Program running with 6 parallel MPI-processes     *
           *              working on a common directory               *
           ************************************************************

------------------------------------------------------------------------------
                              ORCA PROPERTY CALCULATIONS
------------------------------------------------------------------------------

GBWName                                 ... orca.gbw
Number of atoms                         ...     16
Number of basis functions               ...    134
Max core memory                         ...   4096 MB

Electric properties:
Dipole moment                           ... YES
Quadrupole moment                       ...  NO
Static polarizability (Dipole/Dipole)   ...  NO
Static polarizability (Dipole/Quad.)    ...  NO
Static polarizability (Quad./Quad.)     ...  NO
Static polarizability (Velocity)        ...  NO
Static hyperpolarizability              ...  NO

Atomic electric properties:
Dipole moment                           ...  NO
Quadrupole moment                       ...  NO
Static polarizability                   ...  NO

Choice of electric origin               ... Center of mass
Position of electric origin             ...    -0.023383     0.035970     0.012289

General magnetic properties:
Magnetizability                         ...  NO

EPR properties:
g-Tensor (aka g-matrix)                 ...  NO
Zero-Field splitting spin-orbit         ...  NO
Zero-field splitting spin-spin          ...  NO
Hyperfine couplings                     ...  NO (   0 nuclei)
Quadrupole couplings                    ...  NO (   0 nuclei)
Contact density                         ...  NO (   0 nuclei)

NMR properties:
Chemical shifts                         ...  NO (   0 nuclei)
Spin-rotation constants                 ...  NO (   0 nuclei)
Spin-spin couplings                     ...  NO (   0 nuclei,    0 pairs)

Choice of magnetic origin               ... GIAO
Position of magnetic origin             ...     0.000000     0.000000     0.000000

Properties with geometric perturbations:
SCF Hessian                             ...  NO
IR spectrum                             ...  NO
VCD spectrum                            ...  NO
X-ray spectroscopy properties:
SCF XES/XAS/RIXS spectra                ...  NO

SCF SOC stabilization energy            ...  NO
Diagonal Born-Oppenheimer correction    ...  NO

-------------
DIPOLE MOMENT
-------------

Method             : SCF
Type of density    : Electron Density
Multiplicity       :   1
Irrep              :   0
Energy             :  -234.2685828828626029 Eh
Basis              : AO
                                X                 Y                 Z
Electronic contribution:     -0.532809047       0.078763128      -0.240044257
Nuclear contribution   :      0.656417498      -0.084180974       0.243771649
                        -----------------------------------------
Total Dipole Moment    :      0.123608451      -0.005417846       0.003727392
                        -----------------------------------------
Magnitude (a.u.)       :      0.123783261
Magnitude (Debye)      :      0.314632044



--------------------
Rotational spectrum 
--------------------
 
Rotational constants in cm-1:             0.371970             0.058930             0.055375 
Rotational constants in MHz :         11151.391661          1766.676936          1660.096123 

Dipole components along the rotational axes: 
x,y,z [a.u.] :     0.123367     0.009347     0.003944 
x,y,z [Debye]:     0.313574     0.023757     0.010024 

 

Dipole moment calculation done in   0.0 sec 

Maximum memory used throughout the entire PROP-calculation: 6.6 MB

--------------------------------
SUGGESTED CITATIONS FOR THIS RUN
--------------------------------

Below you find a list of papers that are relevant to this ORCA run
We neither can nor want to force you to cite these papers, but we appreciate if you do
You receive ORCA, which is the product of decades of hard work by many enthusiastic individuals, for free
The only thing we kindly ask in return is that you cite our papers,
We deeply appreciate it, if you show your appreciation for ORCA by not just citing the generic ORCA reference.

Please note that relegating all ORCA citations to the supporting information does *not* help us.
SI sections are not indexed - citations you put there will not count into any citation statistics
But we need these citations in order to attract the funding resources that allow us to do what we are doing

Therefore, if you are a happy ORCA user, please consider citing a few of the papers listed below in the main body of your paper

In addition to the list printed below, the program has created the file orca.bibtex that contains the list in bibtex format
You can import this file easily into all common literature databanks and citation aid programs


List of essential papers. We consider these as the minimum necessary citations

  1. Neese, F.
     Software update: the ORCA program system, version 6.0
     WIRES Comput. Molec. Sci. 2025 15(1), e70019
     doi.org/10.1002/wcms.7019

List of papers to cite with high priority. The work reported in these papers was absolutely
necessary for this run to complete.
Our perspective: the developers of density functionals and basis sets usually get cited in chemistry papers
Good! But without the algorithms to do something with them, the functionals or basis sets would not do anything.
Hence, in our opinion, the algorithm design and method developments papers are equally worthy of getting cited

  1. Neese, F.
     An improvement of the resolution of the identity approximation for the formation of the Coulomb matrix
     J. Comp. Chem. 2003 24(14), 1740-1747
     doi.org/10.1002/jcc.10318
  2. Neese, F.; Wennmohs, F.; Hansen, A.; Becker, U.
     Efficient, approximate and parallel Hartree-Fock and hybrid DFT calculations. A 'chain-of-spheres' algorithm for the Hartree-Fock exchange
     Chem. Phys. 2009 356(1-3), 98-109
     doi.org/10.1016/j.chemphys.2008.10.036
  3. Grimme, S.; Antony, J.; Ehrlich, S.; Krieg, H.
     A consistent and accurate ab initio parametrization of density functional dispersion correction (DFT-D) for the 94 elements H-Pu
     J. Chem. Phys. 2010 132 , 154104
     doi.org/10.1063/1.3382344
  4. Grimme, S.; Ehrlich, S.; Goerigk, L.
     Effect of the damping function in dispersion corrected density functional theory
     J. Comput. Chem. 2011 32(7), 1456-1465
     doi.org/10.1002/jcc.21759
  5. Helmich-Paris, B.; de Souza, B.; Neese, F.; Izsák, R.
     An improved chain of spheres for exchange algorithm
     J. Chem. Phys. 2021 155(10), 104109
     doi.org/10.1063/5.0058766
  6. Neese, F.
     The SHARK Integral Generation and Digestion System
     J. Comp. Chem. 2022 44(3), 381
     doi.org/10.1002/jcc.26942

List of suggested additional citations. These are papers that are important in the 'surrounding' of 
of this run, or papers that preceded the highly important papers. If you like your results we are grateful for a citation.

  1. Izsak, R.; Neese, F.
     An overlap fitted chain of spheres exchange method
     J. Chem. Phys. 2011 135 , 144105
     doi.org/10.1063/1.3646921
  2. Izsak, R.; Hansen, A.; Neese, F.
     The resolution of identity and chain of spheres approximations for the LPNO-CCSD singles Fock term
     Molec. Phys. 2012 110 , 2413-2417
     doi.org/10.1080/00268976.2012.687466
  3. Neese, F.
     The ORCA program system
     WIRES Comput. Molec. Sci. 2012 2(1), 73-78
     doi.org/10.1002/wcms.81
  4. Izsak, R.; Neese, F.; Klopper, W.
     Robust fitting techniques in the chain of spheres approximation to the Fock exchange: The role of the complementary space
     J. Chem. Phys. 2013 139 , 
     doi.org/10.1063/1.4819264
  5. Neese, F.
     Software update: the ORCA program system, version 4.0
     WIRES Comput. Molec. Sci. 2018 8(1), 1-6
     doi.org/10.1002/wcms.1327
  6. Neese, F.; Wennmohs, F.; Becker, U.; Riplinger, C.
     The ORCA quantum chemistry program package
     J. Chem. Phys. 2020 152(22), 224108
     doi.org/10.1063/5.0004608
  7. Neese, F.
     Software update: The ORCA program system—Version 5.0
     WIRES Comput. Molec. Sci. 2022 12(1), e1606
     doi.org/10.1002/wcms.1606

List of optional additional citations

  1. Neese, F.
     Approximate second-order SCF convergence for spin unrestricted wavefunctions
     Chem. Phys. Lett. 2000 325(1-3), 93-98
     doi.org/10.1016/s0009-2614(00)00662-x

Timings for individual modules:

Sum of individual times          ...       17.728 sec (=   0.295 min)
Startup calculation              ...        1.406 sec (=   0.023 min)   7.9 %
SCF iterations                   ...        9.922 sec (=   0.165 min)  56.0 %
Property calculations            ...        0.456 sec (=   0.008 min)   2.6 %
SCF Gradient evaluation          ...        5.944 sec (=   0.099 min)  33.5 %
                             ****ORCA TERMINATED NORMALLY****
TOTAL RUN TIME: 0 days 0 hours 0 minutes 18 seconds 292 msec
