
                                 *****************
                                 * O   R   C   A *
                                 *****************

                                            #,                                       
                                            ###                                      
                                            ####                                     
                                            #####                                    
                                            ######                                   
                                           ########,                                 
                                     ,,################,,,,,                         
                               ,,#################################,,                 
                          ,,##########################################,,             
                       ,#########################################, ''#####,          
                    ,#############################################,,   '####,        
                  ,##################################################,,,,####,       
                ,###########''''           ''''###############################       
              ,#####''   ,,,,##########,,,,          '''####'''          '####       
            ,##' ,,,,###########################,,,                        '##       
           ' ,,###''''                  '''############,,,                           
         ,,##''                                '''############,,,,        ,,,,,,###''
      ,#''                                            '''#######################'''  
     '                                                          ''''####''''         
             ,#######,   #######,   ,#######,      ##                                
            ,#'     '#,  ##    ##  ,#'     '#,    #''#        ,####,    ,#,          
            ##       ##  ##   ,#'  ##            #'  '#       #'       ,# #          
            ##       ##  #######   ##           ,######,      #####,      #          
            '#,     ,#'  ##    ##  '#,     ,#' ,#      #,     #,   #      #          
             '#######'   ##     ##  '#######'  #'      '#     '####' #    #          



                #########################################################
                #                        -***-                          #
                #          Department of theory and spectroscopy        #
                #                                                       #
                #                      Frank Neese                      #
                #                                                       #
                #     Directorship, Architecture, Infrastructure        #
                #                    SHARK, DRIVERS                     #
                #        Core code/Algorithms in most modules           #
                #                                                       #
                #        Max Planck Institute fuer Kohlenforschung      #
                #                Kaiser Wilhelm Platz 1                 #
                #                 D-45470 Muelheim/Ruhr                 #
                #                      Germany                          #
                #                                                       #
                #                  All rights reserved                  #
                #                        -***-                          #
                #########################################################


                         Program Version 6.1.0  -  RELEASE   -
                                (GIT: $679e74b$)
                          ($2025-06-10 18:02:51 +0200$)


 With contributions from (in alphabetic order):
[Max-Planck-Institut fuer Kohlenforschung]                               
  Daniel Aravena         : Magnetic Suceptibility                        
  Michael Atanasov       : Ab Initio Ligand Field Theory (pilot matlab implementation)
  Alexander A. Auer      : GIAO ZORA, VPT2 properties, NMR spectrum      
  Ute Becker             : All parallelization in ORCA, NUMFREQ, NUMCALC 
  Giovanni Bistoni       : ED, misc. LED, open-shell LED, HFLD           
  Dmytro Bykov           : pre 5.0 version of the SCF Hessian            
  Marcos Casanova-Páez   : Triplet and SCS-CIS(D). UHF-(DLPNO)-IP/EA/STEOM-CCSD. UHF-CVS-IP/STEOM-CCSD   
  Vijay G. Chilkuri      : MRCI spin determinant printing, contributions to CSF-ICE 
  Pauline Colinet        : FMM embedding                                 
  Dipayan Datta          : RHF DLPNO-CCSD density                        
  Achintya Kumar Dutta   : EOM-CC, STEOM-CC                              
  Nicolas Foglia         : Exact transition moments, OPA infrastructure, MCD improvements    
  Dmitry Ganyushin       : Spin-Orbit,Spin-Spin,Magnetic field MRCI      
  Miquel Garcia-Rates    : C-PCM and meta-GGA Hessian, CCSD/C-PCM, Gaussian charge scheme 
  Tiago L. C. Gouveia    : GS-ROHF, GS-ROCIS                             
  Yang Guo               : DLPNO-NEVPT2, F12-NEVPT2, CIM, IAO-localization        
  Andreas Hansen         : Spin unrestricted coupled pair/coupled cluster methods 
  Ingolf Harden          : AUTO-CI MPn and infrastructure                
  Benjamin Helmich-Paris : MC-RPA, TRAH-(SCF,CASSCF), AVAS, COSX integrals, SCF dyn. polar., MC-PDFT, srDFT 
  Lee Huntington         : MR-EOM, pCC                                   
  Robert Izsak           : Overlap fitted RIJCOSX, COSX-SCS-MP3, EOM     
  Riya Kayal             : Wick's Theorem for AUTO-CI, AUTO-CI UHF-CCSDT 
  Emily Kempfer          : AUTO-CI RHF CISDT and CCSDT, approximate NEVPT4
  Christian Kollmar      : KDIIS, OOCD, Brueckner-CCSD(T), CCSD density, CASPT2, CASPT2-K, improved NEVPT2 
  Axel Koslowski         : Symmetry handling                             
  Simone Kossmann        : meta-GGA functionals, TD-DFT gradient, OOMP2, (MP2 Hessian; deprecated post 5.0) 
  Lucas Lang             : DCDCAS, Hyperfine gauge corrections, ICE-SOC+SSC
  Marvin Lechner         : AUTO-CI (C++ implementation), FIC-MRCC        
  Spencer Leger          : CASSCF response                               
  Dagmar Lenk            : GEPOL surface, SMD, ORCA-2-JSON               
  Dimitrios Liakos       : Extrapolation schemes; Compound Job, Property file
  Dimitrios Manganas     : Further ROCIS development; embedding schemes. LFT, Crystal Embedding 
  Dimitrios Pantazis     : SARC Basis sets                               
  Anastasios Papadopoulos: AUTO-CI, single reference methods and gradients 
  Taras Petrenko         : pre 6.0 DFT Hessian and TD-DFT gradient,  ECA, NRVS 
  Petra Pikulova         : Analytic Raman intensities                    
  Peter Pinski           : DLPNO-MP2, DLPNO-MP2 Gradient                 
  Shashank Vittal Rao    : ES-AILFT, MagRelax                            
  Christoph Reimann      : Effective Core Potentials                     
  Marius Retegan         : Local ZFS, SOC                                
  Christoph Riplinger    : Optimizer, TS searches, QM/MM, DLPNO-CCSD(T), (RO)-DLPNO pert. Triples 
  Michael Roemelt        : Original ROCIS implementation, recursive CI coupling coefficients
  Masaaki Saitow         : Open-shell DLPNO-CCSD energy and density      
  Barbara Sandhoefer     : DKH picture change effects                    
  Yorick L. A. Schmerwitz: GMF and freeze-and-release deltaSCF, NEB S-IDPP initial path                    
  Kantharuban Sivalingam : CASSCF convergence/infrastructure, NEVPT2, NEVPT3, NEVPT4(SD), FIC-MRCI and CEPA variants
  Bernardo de Souza      : ESD, SOC TD-DFT                               
  Georgi L. Stoychev     : AutoAux, RI-MP2 NMR, DLPNO-MP2 response, X2C  
  Van Anh Tran           : RI-MP2 g-tensors                              
  Willem Van den Heuvel  : Paramagnetic NMR                              
  Zikuan Wang            : NOTCH, Electric field optimization            
  Frank Wennmohs         : Technical directorship and infrastructure     
  Hang Xu                : AUTO-CI-Response properties                   
                                                                         
[FACCTs GmbH]                                                            
  Markus Bursch, Nicolas Foglia, Miquel Garcia-Rates, Ingolf Harden, Hagen Neugebauer, Anastasios Papadopoulos, 
  Christoph Riplinger, Bernardo de Souza, Georgi L. Stoychev                                                    
                                                                 
  APM, various basis sets, CI-OPT, improved COSX, DLPNO-Multilevel,           
  DOCKER, DRACO, updates on ESD, Fragmentator, GOAT, IRC, LR-CPCM, L-BFGS, MBIS, meta-GGA TD-DFT gradient, ML-optimized integration grids, 
  MM, NACMEs, nearIR, NEB, NEB-TS, NL-DFT gradient (VV10), 2- and 3-layer-ONIOM, interface openCOSMO-RS, QMMM,   
  Crystal-QMMM, RESP, rigid body optimization, SF, symmetry and pop. for TD-DFT, various functionals, SOLVATOR                                   
                                                                         
[Other institutions]                                                     
  V. Asgeirsson          : NEB                                           
  Christoph Bannwarth    : sTDA-DFT, sTD-DFT, PBEh-3c, B97-3c, D3        
  Giovanni Bistoni       : ETS/NOCV, ADLD/ADEX, COVALED                  
  Martin Brehm           : Molecular dynamics                            
  Ronald Cardenas        : ETS/NOCV                                      
  Martina Colucci        : COVALED                                       
  Sebastian Ehlert       : rSCAN, r2SCAN, r2SCAN-3c, D4, dhf basis sets  
  Marvin Friede          : D4 for Fr, Ra, Ac-Lr                          
  Lars Goerigk           : TD-DFT with DH, B97 family of functionals     
  Stefan Grimme          : VdW corrections, initial TS optimization, DFT functionals, gCP, sTDA/sTD-DF 
  Waldemar Hujo          : DFT-NL                                        
  H. Jonsson             : NEB                                           
  Holger Kruse           : gCP                                           
  Marcel Mueller         : wB97X-3c, vDZP basis set                      
  Hagen Neugebauer       : wr2SCAN, Native XTB                           
  Gianluca Regni         : ADLD/ADEX                                     
  Tobias Risthaus        : pre 6.0 range-separated hybrid DFT and stability analysis
  Lukas Wittmann         : regularized MP2, r2SCAN double-hybrids, wr2SCAN        
                                                                         
We gratefully acknowledge several colleagues who have allowed us to      
interface, adapt or use parts of their codes:                            
  Ed Valeev, F. Pavosevic, A. Kumar             : LibInt (2-el integral package), F12 methods 
  Garnet Chan, S. Sharma, J. Yang, R. Olivares  : DMRG                   
  Ulf Ekstrom                                   : XCFun DFT Library      
  Mihaly Kallay                                 : mrcc  (arbitrary order and MRCC methods)
  Frank Weinhold                                : gennbo (NPA and NBO analysis)           
  Simon Mueller                                 : openCOSMO-RS                            
  Christopher J. Cramer and Donald G. Truhlar   : smd solvation model                     
  S Lehtola, MJT Oliveira, MAL Marques          : LibXC Library                           
  Liviu Ungur et al                             : ANISO software                          


 Your calculation uses the libint2 library for the computation of 2-el integrals
 For citations please refer to: http://libint.valeyev.net

 Your ORCA version has been built with support for libXC version: 7.0.0
 For citations please refer to: https://libxc.gitlab.io

 This ORCA versions uses:
   CBLAS   interface :  Fast vector & matrix operations
   LAPACKE interface :  Fast linear algebra routines
   SCALAPACK package :  Parallel linear algebra routines
   Shared memory     :  Shared parallel matrices
   BLAS/LAPACK       :  OpenBLAS 0.3.29  USE64BITINT DYNAMIC_ARCH NO_AFFINITY Zen SINGLE_THREADED
        Core in use  :  Zen
   Copyright (c) 2011-2014, The OpenBLAS Project


  ***********************************
  * Starting time: Wed Sep 10 13:33:18 2025
  * Host name:     wyk-Server
  * Process ID:    2271922
  * Working dir.:  /home/wyk/Documents/code/openQDC/MGMR/singlepointcalc/12/sp
  ***********************************

Your calculation utilizes the atom-pairwise dispersion correction
with the Becke-Johnson damping scheme (D3BJ)


Warning: RI is on but no J-basis has been assigned. Assigning Def2/J (nothing to worry about!)
================================================================================

----- Orbital basis set information -----
Your calculation utilizes the basis: def2-SVP
   F. Weigend and R. Ahlrichs, Phys. Chem. Chem. Phys. 7, 3297 (2005).

----- AuxJ basis set information -----
Your calculation utilizes the auxiliary basis: def2/J
   H-Rn: F. Weigend, Phys. Chem. Chem. Phys. 8, 1057 (2006).
   Fr-Lr: K. Eichkorn, F. Weigend, O. Treutler, R. Ahlrichs; Theor. Chem. Acc. 97, 119 (1997).

================================================================================
                                        WARNINGS
                       Please study these warnings very carefully!
================================================================================


================================================================================
                                       INPUT FILE
================================================================================
NAME = orca.inp
|  1> ! B3LYP def2-SVP d3 EnGrad 
|  2> %pal nprocs 6 end 
|  3> *xyz 0 1 
|  4> N   0.70794200150898 -1.41092370045052 0.68060735098036
|  5> B   1.42391736887395 1.10604007044148 -0.76693789003743
|  6> B   -1.37114691444434 -0.2375902543542 -0.36359666372848
|  7> N   -1.6814221411689 0.90509557605283 0.37899410030542
|  8> H   0.27147847568265 -1.74504904866635 1.54066955400436
|  9> H   1.6664746738237 -1.14530455031084 0.90935370378293
| 10> H   0.76008734110328 -2.2087476840926 0.0452028130508
| 11> H   1.6700611801501 1.28635446588266 0.39838762080102
| 12> H   2.02396762216842 0.26869961504645 -1.3917375674852
| 13> H   0.70442243759885 1.87951677087698 -1.34625686157981
| 14> H   -0.72338979912165 -0.11795102789321 -1.37783969064744
| 15> H   -1.9117879543675 -1.2861134923447 -0.09561998249132
| 16> H   -2.25427093495493 0.89058825042986 1.21412676242746
| 17> H   -1.28633335685262 1.81538500938214 0.17464675061733
| 18> *
| 19> 
| 20>                          ****END OF INPUT****
================================================================================

                     *******************************
                     * Energy+Gradient Calculation *
                     *******************************

---------------------------------
CARTESIAN COORDINATES (ANGSTROEM)
---------------------------------
  N      0.707942   -1.410924    0.680607
  B      1.423917    1.106040   -0.766938
  B     -1.371147   -0.237590   -0.363597
  N     -1.681422    0.905096    0.378994
  H      0.271478   -1.745049    1.540670
  H      1.666475   -1.145305    0.909354
  H      0.760087   -2.208748    0.045203
  H      1.670061    1.286354    0.398388
  H      2.023968    0.268700   -1.391738
  H      0.704422    1.879517   -1.346257
  H     -0.723390   -0.117951   -1.377840
  H     -1.911788   -1.286113   -0.095620
  H     -2.254271    0.890588    1.214127
  H     -1.286333    1.815385    0.174647

----------------------------
CARTESIAN COORDINATES (A.U.)
----------------------------
  NO LB      ZA    FRAG     MASS         X           Y           Z
   0 N     7.0000    0    14.007    1.337817   -2.666259    1.286161
   1 B     5.0000    0    10.810    2.690814    2.090113   -1.449303
   2 B     5.0000    0    10.810   -2.591092   -0.448981   -0.687098
   3 N     7.0000    0    14.007   -3.177427    1.710383    0.716195
   4 H     1.0000    0     1.008    0.513020   -3.297665    2.911444
   5 H     1.0000    0     1.008    3.149181   -2.164312    1.718429
   6 H     1.0000    0     1.008    1.436357   -4.173928    0.085421
   7 H     1.0000    0     1.008    3.155958    2.430858    0.752843
   8 H     1.0000    0     1.008    3.824745    0.507769   -2.630003
   9 H     1.0000    0     1.008    1.331165    3.551772   -2.544057
  10 H     1.0000    0     1.008   -1.367009   -0.222895   -2.603740
  11 H     1.0000    0     1.008   -3.612756   -2.430402   -0.180696
  12 H     1.0000    0     1.008   -4.259955    1.682968    2.294367
  13 H     1.0000    0     1.008   -2.430818    3.430580    0.330035

--------------------------------
INTERNAL COORDINATES (ANGSTROEM)
--------------------------------
 N      0   0   0     0.000000000000     0.00000000     0.00000000
 B      1   0   0     2.990504067118     0.00000000     0.00000000
 B      1   2   0     2.605702231741    67.54626681     0.00000000
 N      3   1   2     1.397656133017   109.41226782   286.72490492
 H      1   2   3     1.020709141121   141.79030389   285.86028917
 H      1   2   3     1.020619082095    70.40268706   192.47678942
 H      1   2   3     1.021264496660   110.12822802    90.77611018
 H      2   1   3     1.204609315606    72.94099717   114.84745145
 H      2   1   3     1.204812840925    77.60296821   242.23227957
 H      2   1   3     1.204802736151   129.05817235     0.48327387
 H      3   1   2     1.209376592552    87.32100676    46.51541918
 H      3   1   2     1.209754196662    82.96547660   167.92093541
 H      4   3   1     1.012824153731   123.50069791   275.03615704
 H      4   3   1     1.013153413481   122.74040679    89.60289173

---------------------------
INTERNAL COORDINATES (A.U.)
---------------------------
 N      0   0   0     0.000000000000     0.00000000     0.00000000
 B      1   0   0     5.651233689231     0.00000000     0.00000000
 B      1   2   0     4.924063604539    67.54626681     0.00000000
 N      3   1   2     2.641187320798   109.41226782   286.72490492
 H      1   2   3     1.928860739108   141.79030389   285.86028917
 H      1   2   3     1.928690552213    70.40268706   192.47678942
 H      1   2   3     1.929910208984   110.12822802    90.77611018
 H      2   1   3     2.276381704865    72.94099717   114.84745145
 H      2   1   3     2.276766311981    77.60296821   242.23227957
 H      2   1   3     2.276747216724   129.05817235     0.48327387
 H      3   1   2     2.285390552698    87.32100676    46.51541918
 H      3   1   2     2.286104121054    82.96547660   167.92093541
 H      4   3   1     1.913960272373   123.50069791   275.03615704
 H      4   3   1     1.914582483126   122.74040679    89.60289173

---------------------
BASIS SET INFORMATION
---------------------
There are 3 groups of distinct atoms

 Group   1 Type N   : 7s4p1d contracted to 3s2p1d pattern {511/31/1}
 Group   2 Type B   : 7s4p1d contracted to 3s2p1d pattern {511/31/1}
 Group   3 Type H   : 4s1p contracted to 2s1p pattern {31/1}

Atom   0N    basis set group =>   1
Atom   1B    basis set group =>   2
Atom   2B    basis set group =>   2
Atom   3N    basis set group =>   1
Atom   4H    basis set group =>   3
Atom   5H    basis set group =>   3
Atom   6H    basis set group =>   3
Atom   7H    basis set group =>   3
Atom   8H    basis set group =>   3
Atom   9H    basis set group =>   3
Atom  10H    basis set group =>   3
Atom  11H    basis set group =>   3
Atom  12H    basis set group =>   3
Atom  13H    basis set group =>   3
---------------------------------
AUXILIARY/J BASIS SET INFORMATION
---------------------------------
There are 3 groups of distinct atoms

 Group   1 Type N   : 12s5p4d2f1g contracted to 6s4p3d1f1g pattern {711111/2111/211/2/1}
 Group   2 Type B   : 12s5p4d2f1g contracted to 6s4p3d1f1g pattern {711111/2111/211/2/1}
 Group   3 Type H   : 5s2p1d contracted to 3s1p1d pattern {311/2/1}

Atom   0N    basis set group =>   1
Atom   1B    basis set group =>   2
Atom   2B    basis set group =>   2
Atom   3N    basis set group =>   1
Atom   4H    basis set group =>   3
Atom   5H    basis set group =>   3
Atom   6H    basis set group =>   3
Atom   7H    basis set group =>   3
Atom   8H    basis set group =>   3
Atom   9H    basis set group =>   3
Atom  10H    basis set group =>   3
Atom  11H    basis set group =>   3
Atom  12H    basis set group =>   3
Atom  13H    basis set group =>   3


           ************************************************************
           *        Program running with 6 parallel MPI-processes     *
           *              working on a common directory               *
           ************************************************************
------------------------------------------------------------------------------
                             ORCA STARTUP CALCULATIONS
                           -- RI-GTO INTEGRALS CHOSEN --
------------------------------------------------------------------------------
------------------------------------------------------------------------------
                   ___                                                        
                  /   \      - P O W E R E D   B Y -                         
                 /     \                                                     
                 |  |  |   _    _      __       _____    __    __             
                 |  |  |  | |  | |    /  \     |  _  \  |  |  /  |          
                  \  \/   | |  | |   /    \    | | | |  |  | /  /          
                 / \  \   | |__| |  /  /\  \   | |_| |  |  |/  /          
                |  |  |   |  __  | /  /__\  \  |    /   |      \           
                |  |  |   | |  | | |   __   |  |    \   |  |\   \          
                \     /   | |  | | |  |  |  |  | |\  \  |  | \   \       
                 \___/    |_|  |_| |__|  |__|  |_| \__\ |__|  \__/        
                                                                              
                      - O R C A' S   B I G   F R I E N D -                    
                                      &                                       
                       - I N T E G R A L  F E E D E R -                       
                                                                              
 v1 FN, 2020, v2 2021, v3 2022-2024                                           
------------------------------------------------------------------------------


----------------------
SHARK INTEGRAL PACKAGE
----------------------

Number of atoms                             ...     14
Number of basis functions                   ...    106
Number of shells                            ...     54
Maximum angular momentum                    ...      2
Integral batch strategy                     ... SHARK/LIBINT Hybrid
RI-J (if used) integral strategy            ... SPLIT-RIJ (Revised 2003 algorithm where possible)
Printlevel                                  ...      1
Contraction scheme used                     ... SEGMENTED contraction
Prescreening option                         ... SCHWARTZ
   Thresh                                   ... 2.500e-11
   Tcut                                     ... 2.500e-12
   Tpresel                                  ... 2.500e-12 
Coulomb Range Separation                    ... NOT USED
Exchange Range Separation                   ... NOT USED
Multipole approximations                    ... NOT USED
Finite Nucleus Model                        ... NOT USED
CABS basis                                  ... NOT available
Auxiliary Coulomb fitting basis             ... AVAILABLE
   # of basis functions in Aux-J            ...    306
   # of shells in Aux-J                     ...    110
   Maximum angular momentum in Aux-J        ...      4
Auxiliary J/K fitting basis                 ... NOT available
Auxiliary Correlation fitting basis         ... NOT available
Auxiliary 'external' fitting basis          ... NOT available

Checking pre-screening integrals            ... done (  0.0 sec) Dimension = 54
   => SHARK Basis and OBASIS are compatible. Storing Pre-screening
Shell pair information
Shell pair cut-off parameter TPreSel        ...   2.5e-12
Total number of shell pairs                 ...      1485
Shell pairs after pre-screening             ...      1463
Total number of primitive shell pairs       ...      4933
Primitive shell pairs kept                  ...      3807
          la=0 lb=0:    523 shell pairs
          la=1 lb=0:    563 shell pairs
          la=1 lb=1:    169 shell pairs
          la=2 lb=0:    126 shell pairs
          la=2 lb=1:     72 shell pairs
          la=2 lb=2:     10 shell pairs

Checking whether 4 symmetric matrices of dimension 106 fit in memory
:Max Core in MB      =   4096.00
 MB in use           =      5.12
 MB left             =   4090.88
 MB needed           =      0.17
 Data fit in memory  = YES
Calculating RI/J V-Matrix + Cholesky decomp.... done (  0.0 sec)
Calculating Nuclear repulsion               ... done (  0.0 sec) ENN=    111.794602015140 Eh

Diagonalization of the overlap matrix:
Smallest eigenvalue                        ... 7.674e-03
Time for diagonalization                   ...    0.001 sec
Threshold for overlap eigenvalues          ... 1.000e-07
Number of eigenvalues below threshold      ... 0
Time for construction of square roots      ...    0.001 sec
Total time needed                          ...    0.003 sec

-------------------
DFT GRID GENERATION
-------------------

General Integration Accuracy     IntAcc      ... 4.388
Radial Grid Type                 RadialGrid  ... OptM3 with GC (2021)
Angular Grid (max. ang.)         AngularGrid ... 4 (Lebedev-302)
Angular grid pruning method      GridPruning ... 4 (adaptive)
Weight generation scheme         WeightScheme... mBecke (2022)
Basis function cutoff            BFCut       ... 1.0000e-11
Integration weight cutoff        WCut        ... 1.0000e-14
Partially contracted basis set               ... off
Rotationally invariant grid construction     ... off
Angular grids for H and He will be reduced by one unit

Total number of grid points                  ...    56706
Total number of batches                      ...      894
Average number of points per batch           ...       63
Average number of grid points per atom       ...     4050

--------------------
COSX GRID GENERATION
--------------------

GRIDX 1
-------
General Integration Accuracy     IntAcc      ... 3.816
Radial Grid Type                 RadialGrid  ... OptM3 with GC (2021)
Angular Grid (max. ang.)         AngularGrid ... 1 (Lebedev-50)
Angular grid pruning method      GridPruning ... 4 (adaptive)
Weight generation scheme         WeightScheme... mBecke (2022)
Basis function cutoff            BFCut       ... 1.0000e-11
Integration weight cutoff        WCut        ... 1.0000e-14
Partially contracted basis set               ... on
Rotationally invariant grid construction     ... off
Angular grids for H and He will be reduced by one unit

Total number of grid points                  ...     7326
Total number of batches                      ...       66
Average number of points per batch           ...      111
Average number of grid points per atom       ...      523
UseSFitting                                  ... on

GRIDX 2
-------
General Integration Accuracy     IntAcc      ... 4.020
Radial Grid Type                 RadialGrid  ... OptM3 with GC (2021)
Angular Grid (max. ang.)         AngularGrid ... 2 (Lebedev-110)
Angular grid pruning method      GridPruning ... 4 (adaptive)
Weight generation scheme         WeightScheme... mBecke (2022)
Basis function cutoff            BFCut       ... 1.0000e-11
Integration weight cutoff        WCut        ... 1.0000e-14
Partially contracted basis set               ... on
Rotationally invariant grid construction     ... off
Angular grids for H and He will be reduced by one unit

Total number of grid points                  ...    14994
Total number of batches                      ...      124
Average number of points per batch           ...      120
Average number of grid points per atom       ...     1071
UseSFitting                                  ... on

GRIDX 3
-------
General Integration Accuracy     IntAcc      ... 4.338
Radial Grid Type                 RadialGrid  ... OptM3 with GC (2021)
Angular Grid (max. ang.)         AngularGrid ... 3 (Lebedev-194)
Angular grid pruning method      GridPruning ... 4 (adaptive)
Weight generation scheme         WeightScheme... mBecke (2022)
Basis function cutoff            BFCut       ... 1.0000e-11
Integration weight cutoff        WCut        ... 1.0000e-14
Partially contracted basis set               ... on
Rotationally invariant grid construction     ... off
Angular grids for H and He will be reduced by one unit

Total number of grid points                  ...    32785
Total number of batches                      ...      264
Average number of points per batch           ...      124
Average number of grid points per atom       ...     2342
UseSFitting                                  ... on
Grids setup in   0.7 sec
Initializing property integral containers    ... done (  0.0 sec)

SHARK setup successfully completed in   0.8 seconds

Maximum memory used throughout the entire STARTUP-calculation: 15.7 MB


           ************************************************************
           *        Program running with 6 parallel MPI-processes     *
           *              working on a common directory               *
           ************************************************************
-------------------------------------------------------------------------------
                                 ORCA GUESS
                   Start orbitals & Density for SCF / CASSCF
-------------------------------------------------------------------------------

------------
SCF SETTINGS
------------
Hamiltonian:
 Density Functional     Method          .... DFT(GTOs)
 Exchange Functional    Exchange        .... B88
   X-Alpha parameter    XAlpha          ....  0.666667
   Becke's b parameter  XBeta           ....  0.004200
 Correlation Functional Correlation     .... LYP
 LDA part of GGA corr.  LDAOpt          .... VWN-5
 Gradients option       PostSCFGGA      .... off
 Hybrid DFT is turned on
   Fraction HF Exchange ScalHFX         ....  0.200000
   Scaling of DF-GGA-X  ScalDFX         ....  0.720000
   Scaling of DF-GGA-C  ScalDFC         ....  0.810000
   Scaling of DF-LDA-C  ScalLDAC        ....  1.000000
   Perturbative correction              ....  0.000000
   NL short-range parameter             ....  4.800000
 RI-approximation to the Coulomb term is turned on
   Number of AuxJ basis functions       .... 306
   RIJ-COSX (HFX calculated with COS-X)).... on


General Settings:
 Integral files         IntName         .... orca
 Hartree-Fock type      HFTyp           .... RHF
 Total Charge           Charge          ....    0
 Multiplicity           Mult            ....    1
 Number of Electrons    NEL             ....   34
 Basis Dimension        Dim             ....  106
 Nuclear Repulsion      ENuc            ....    111.7946020151 Eh

Convergence Acceleration:
 AO-DIIS                CNVDIIS         .... on
   Start iteration      DIISMaxIt       ....    12
   Startup error        DIISStart       ....  0.200000
   # of expansion vecs  DIISMaxEq       ....     5
   Bias factor          DIISBfac        ....   1.050
   Max. coefficient     DIISMaxC        ....  10.000
 MO-DIIS                CNVKDIIS        .... off
 Trust-Rad. Augm. Hess. CNVTRAH         .... auto
   Auto Start mean grad. ratio tolernc. ....  1.125000
   Auto Start start iteration           ....    50
   Auto Start num. interpolation iter.  ....    10
   Max. Number of Micro iterations      ....    24
   Max. Number of Macro iterations      .... Maxiter - #DIIS iter
   Number of Davidson start vectors     ....     2
   Converg. threshold    (grad. norm)   ....   1.000e-05
   Grad. Scal. Fac. for Micro threshold ....   0.100
   Minimum threshold for Micro iter.    ....   1.000e-02
   NR start threshold (gradient norm)   ....   1.000e-04
   Initial trust radius                 ....   0.400
   Minimum AH scaling param. (alpha)    ....   1.000
   Maximum AH scaling param. (alpha)    .... 1000.000
   Quad. conv. algorithm                .... NR
   White noise on init. David. guess    .... on
   Maximum white noise                  ....   0.010
   Pseudo random numbers                .... off
   Inactive MOs                         .... canonical
   Orbital update algorithm             .... Taylor
   Preconditioner                       .... Diag
   Full preconditioner red. dimension   ....   250
 SOSCF                 CNVSOSCF           .... on
   Start iteration     SOSCFMaxIt         ....   150
   Startup grad/error  SOSCFStart         ....  0.003300
   Hessian update      SOSCFHessUp        .... L-BFGS
   Autom. constraints  SOSCFAutoConstrain .... off
 Level Shifting         CNVShift        .... on
   Level shift para.    LevelShift      ....    0.2500
   Turn off err/grad.   ShiftErr        ....    0.0010
 Zerner damping         CNVZerner       .... off
 Static damping         CNVDamp         .... on
   Fraction old density DampFac         ....    0.7000
   Max. Damping (<1)    DampMax         ....    0.9800
   Min. Damping (>=0)   DampMin         ....    0.0000
   Turn off err/grad.   DampErr         ....    0.1000

SCF Procedure:
 Maximum # iterations   MaxIter         ....   125
 SCF integral mode      SCFMode         .... Direct
   Integral package                     .... SHARK and LIBINT hybrid scheme
 Reset frequency        DirectResetFreq ....    20
 Integral Threshold     Thresh          ....  2.500e-11 Eh
 Primitive CutOff       TCut            ....  2.500e-12 Eh

Convergence Tolerance:
 Convergence Check Mode ConvCheckMode   .... Total+1el-Energy
 Convergence forced     ConvForced      .... 0
 Energy Change          TolE            ....  1.000e-08 Eh
 1-El. energy change                    ....  1.000e-05 Eh
 Orbital Gradient       TolG            ....  1.000e-05
 Orbital Rotation angle TolX            ....  1.000e-05
 DIIS Error             TolErr          ....  5.000e-07

------------------------------
INITIAL GUESS: MODEL POTENTIAL
------------------------------
Loading Hartree-Fock densities                     ... done
Calculating cut-offs                               ... done
Initializing the effective Hamiltonian             ... done
Setting up the integral package (SHARK)            ... done
Starting the Coulomb interaction                   ... done (   0.0 sec)
Making the grid                                    ... done (   0.1 sec)
Mapping shells                                     ... done
Starting the XC term evaluation                    ... done (   0.0 sec)
  promolecular density results
     # of electrons  =     33.998831886
     EX              =    -23.639976648
     EC              =     -1.028416386
     EX+EC           =    -24.668393034
Transforming the Hamiltonian                       ... done (   0.0 sec)
Diagonalizing the Hamiltonian                      ... done (   0.0 sec)
Back transforming the eigenvectors                 ... done (   0.0 sec)
Now organizing SCF variables                       ... done
                      ------------------
                      INITIAL GUESS DONE (   0.1 sec)
                      ------------------
             **** ENERGY FILE WAS UPDATED (orca.en.tmp) ****
Finished Guess after   0.2 sec
Maximum memory used throughout the entire GUESS-calculation: 7.5 MB


           ************************************************************
           *        Program running with 6 parallel MPI-processes     *
           *              working on a common directory               *
           ************************************************************

-------------------------------------------------------------------------------------------
                                      ORCA LEAN-SCF
                              memory conserving SCF solver
-------------------------------------------------------------------------------------------

----------------------------------------D-I-I-S--------------------------------------------
Iteration    Energy (Eh)           Delta-E    RMSDP     MaxDP     DIISErr   Damp  Time(sec)
-------------------------------------------------------------------------------------------
               ***  Starting incremental Fock matrix formation  ***
    1    -164.7279440051464690     0.00e+00  1.17e-02  9.52e-02  2.71e-01  0.700   0.5
    2    -164.8411309013679329    -1.13e-01  8.04e-03  5.38e-02  1.22e-01  0.700   0.3
                               ***Turning on AO-DIIS***
    3    -164.8839835505345945    -4.29e-02  3.20e-03  2.38e-02  3.38e-02  0.700   0.3
    4    -164.9098072883966211    -2.58e-02  5.22e-03  3.54e-02  1.72e-02  0.000   0.3
    5    -164.9670582897293230    -5.73e-02  1.10e-03  9.21e-03  6.08e-03  0.000   0.3
                              *** Initializing SOSCF ***
---------------------------------------S-O-S-C-F--------------------------------------
Iteration    Energy (Eh)           Delta-E    RMSDP     MaxDP     MaxGrad    Time(sec)
--------------------------------------------------------------------------------------
    6    -164.9674210940249282    -3.63e-04  3.20e-04  1.93e-03  1.56e-03     0.3
               *** Restarting incremental Fock matrix formation ***
    7    -164.9674508560734125    -2.98e-05  1.98e-04  1.26e-03  2.13e-04     0.5
    8    -164.9674532889754346    -2.43e-06  5.37e-05  5.75e-04  1.50e-04     0.4
    9    -164.9674538870355605    -5.98e-07  1.99e-05  1.80e-04  4.56e-05     0.4
   10    -164.9674539151174599    -2.81e-08  1.04e-05  7.91e-05  2.84e-05     0.3
   11    -164.9674539372191475    -2.21e-08  5.31e-06  3.69e-05  7.81e-06     0.3
   12    -164.9674539436537657    -6.43e-09  1.20e-06  1.37e-05  2.74e-06     0.3
                 **** Energy Check signals convergence ****

               *****************************************************
               *                     SUCCESS                       *
               *           SCF CONVERGED AFTER  12 CYCLES          *
               *****************************************************

Recomputing exchange energy using gridx3       ... done (    0.663 sec)
Old exchange energy                            :     -4.890156798 Eh
New exchange energy                            :     -4.890174971 Eh
Exchange energy change after final integration :     -0.000018172 Eh
Total energy after final integration           :   -164.967472116 Eh
             **** ENERGY FILE WAS UPDATED (orca.en.tmp) ****

----------------
TOTAL SCF ENERGY
----------------

Total Energy       :       -164.96747211582542 Eh           -4488.99313 eV

Components:
Nuclear Repulsion  :        111.79460201513996 Eh            3042.08578 eV
Electronic Energy  :       -276.76205595846932 Eh           -7531.07842 eV
One Electron Energy:       -442.54630859918183 Eh          -12042.29728 eV
Two Electron Energy:        165.78425264071254 Eh            4511.21886 eV

Virial components:
Potential Energy   :       -327.97739574022376 Eh           -8924.71866 eV
Kinetic Energy     :        163.00992362439831 Eh            4435.72553 eV
Virial Ratio       :          2.01200876883997

DFT components:
N(Alpha)           :       16.999996568170 electrons
N(Beta)            :       16.999996568170 electrons
N(Total)           :       33.999993136340 electrons
E(X)               :      -19.358027830374 Eh       
E(C)               :       -1.238071594411 Eh       
E(XC)              :      -20.596099424785 Eh       

---------------
SCF CONVERGENCE
---------------

  Last Energy change         ...    6.4346e-09  Tolerance :   1.0000e-08
  Last MAX-Density change    ...    1.3717e-05  Tolerance :   1.0000e-07
  Last RMS-Density change    ...    1.2013e-06  Tolerance :   5.0000e-09
  Last DIIS Error            ...    1.5641e-03  Tolerance :   5.0000e-07
  Last Orbital Gradient      ...    2.7400e-06  Tolerance :   1.0000e-05
  Last Orbital Rotation      ...    3.5983e-06  Tolerance :   1.0000e-05


----------------
ORBITAL ENERGIES
----------------

  NO   OCC          E(Eh)            E(eV) 
   0   2.0000     -14.321151      -389.6983 
   1   2.0000     -14.304843      -389.2546 
   2   2.0000      -6.763649      -184.0483 
   3   2.0000      -6.727870      -183.0746 
   4   2.0000      -0.849615       -23.1192 
   5   2.0000      -0.832488       -22.6531 
   6   2.0000      -0.504041       -13.7156 
   7   2.0000      -0.496242       -13.5034 
   8   2.0000      -0.482166       -13.1204 
   9   2.0000      -0.468545       -12.7498 
  10   2.0000      -0.464893       -12.6504 
  11   2.0000      -0.370909       -10.0930 
  12   2.0000      -0.333868        -9.0850 
  13   2.0000      -0.331526        -9.0213 
  14   2.0000      -0.298430        -8.1207 
  15   2.0000      -0.291525        -7.9328 
  16   2.0000      -0.253508        -6.8983 
  17   0.0000      -0.039339        -1.0705 
  18   0.0000       0.043392         1.1808 
  19   0.0000       0.064715         1.7610 
  20   0.0000       0.080334         2.1860 
  21   0.0000       0.113988         3.1018 
  22   0.0000       0.124711         3.3936 
  23   0.0000       0.135061         3.6752 
  24   0.0000       0.153776         4.1845 
  25   0.0000       0.169600         4.6150 
  26   0.0000       0.189768         5.1638 
  27   0.0000       0.207128         5.6362 
*Only the first 10 virtual orbitals were printed.

                    ********************************
                    * MULLIKEN POPULATION ANALYSIS *
                    ********************************

-----------------------
MULLIKEN ATOMIC CHARGES
-----------------------
   0 N :   -0.176009
   1 B :    0.031864
   2 B :   -0.032224
   3 N :   -0.075586
   4 H :    0.098035
   5 H :    0.102997
   6 H :    0.107167
   7 H :   -0.045485
   8 H :   -0.040908
   9 H :   -0.034755
  10 H :   -0.061379
  11 H :   -0.092655
  12 H :    0.106337
  13 H :    0.112602
Sum of atomic charges:    0.0000000

--------------------------------
MULLIKEN REDUCED ORBITAL CHARGES
--------------------------------
  0 N s       :     3.416642  s :     3.416642
      pz      :     1.155798  p :     3.743647
      px      :     1.202939
      py      :     1.384911
      dz2     :     0.002499  d :     0.015721
      dxz     :     0.002119
      dyz     :     0.005046
      dx2y2   :     0.005353
      dxy     :     0.000703

  1 B s       :     3.084483  s :     3.084483
      pz      :     0.845305  p :     1.859606
      px      :     0.427590
      py      :     0.586710
      dz2     :     0.006837  d :     0.024047
      dxz     :     0.004888
      dyz     :     0.006865
      dx2y2   :     0.000641
      dxy     :     0.004815

  2 B s       :     2.928039  s :     2.928039
      pz      :     0.714509  p :     2.031992
      px      :     0.524744
      py      :     0.792739
      dz2     :     0.013661  d :     0.072193
      dxz     :     0.007856
      dyz     :     0.019627
      dx2y2   :     0.013506
      dxy     :     0.017543

  3 N s       :     3.296046  s :     3.296046
      pz      :     1.237563  p :     3.767892
      px      :     1.422510
      py      :     1.107818
      dz2     :     0.002999  d :     0.011648
      dxz     :     0.002401
      dyz     :     0.001481
      dx2y2   :     0.002753
      dxy     :     0.002014

  4 H s       :     0.855419  s :     0.855419
      pz      :     0.019209  p :     0.046546
      px      :     0.014901
      py      :     0.012436

  5 H s       :     0.850524  s :     0.850524
      pz      :     0.010307  p :     0.046479
      px      :     0.021574
      py      :     0.014598

  6 H s       :     0.846534  s :     0.846534
      pz      :     0.017623  p :     0.046299
      px      :     0.010523
      py      :     0.018153

  7 H s       :     1.032904  s :     1.032904
      pz      :     0.009730  p :     0.012581
      px      :     0.001301
      py      :     0.001549

  8 H s       :     1.028386  s :     1.028386
      pz      :     0.004293  p :     0.012523
      px      :     0.002950
      py      :     0.005279

  9 H s       :     1.022234  s :     1.022234
      pz      :     0.004039  p :     0.012521
      px      :     0.003882
      py      :     0.004600

 10 H s       :     1.049242  s :     1.049242
      pz      :     0.007386  p :     0.012137
      px      :     0.003601
      py      :     0.001150

 11 H s       :     1.080937  s :     1.080937
      pz      :     0.001402  p :     0.011718
      px      :     0.002797
      py      :     0.007519

 12 H s       :     0.846929  s :     0.846929
      pz      :     0.019870  p :     0.046734
      px      :     0.016229
      py      :     0.010634

 13 H s       :     0.840502  s :     0.840502
      pz      :     0.011650  p :     0.046896
      px      :     0.014015
      py      :     0.021232



                     *******************************
                     * LOEWDIN POPULATION ANALYSIS *
                     *******************************

----------------------
LOEWDIN ATOMIC CHARGES
----------------------
   0 N :   -0.044802
   1 B :    0.020315
   2 B :   -0.158249
   3 N :    0.036714
   4 H :    0.065468
   5 H :    0.066818
   6 H :    0.069327
   7 H :   -0.039695
   8 H :   -0.037282
   9 H :   -0.036022
  10 H :   -0.035106
  11 H :   -0.058039
  12 H :    0.073949
  13 H :    0.076602

-------------------------------
LOEWDIN REDUCED ORBITAL CHARGES
-------------------------------
  0 N s       :     3.130500  s :     3.130500
      pz      :     1.217670  p :     3.880137
      px      :     1.256865
      py      :     1.405602
      dz2     :     0.005824  d :     0.034165
      dxz     :     0.005532
      dyz     :     0.010924
      dx2y2   :     0.010324
      dxy     :     0.001561

  1 B s       :     2.867327  s :     2.867327
      pz      :     0.936389  p :     2.042675
      px      :     0.469466
      py      :     0.636820
      dz2     :     0.020468  d :     0.069683
      dxz     :     0.014117
      dyz     :     0.019691
      dx2y2   :     0.001282
      dxy     :     0.014126

  2 B s       :     2.770740  s :     2.770740
      pz      :     0.756214  p :     2.203631
      px      :     0.595707
      py      :     0.851710
      dz2     :     0.036118  d :     0.183877
      dxz     :     0.021673
      dyz     :     0.047318
      dx2y2   :     0.032349
      dxy     :     0.046420

  3 N s       :     3.026673  s :     3.026673
      pz      :     1.291218  p :     3.903931
      px      :     1.389456
      py      :     1.223257
      dz2     :     0.008301  d :     0.032682
      dxz     :     0.006071
      dyz     :     0.004952
      dx2y2   :     0.007533
      dxy     :     0.005825

  4 H s       :     0.817305  s :     0.817305
      pz      :     0.051820  p :     0.117226
      px      :     0.031520
      py      :     0.033886

  5 H s       :     0.814907  s :     0.814907
      pz      :     0.023442  p :     0.118274
      px      :     0.062088
      py      :     0.032744

  6 H s       :     0.813932  s :     0.813932
      pz      :     0.038543  p :     0.116742
      px      :     0.022904
      py      :     0.055295

  7 H s       :     1.007072  s :     1.007072
      pz      :     0.023695  p :     0.032623
      px      :     0.004015
      py      :     0.004913

  8 H s       :     1.004814  s :     1.004814
      pz      :     0.011750  p :     0.032467
      px      :     0.007596
      py      :     0.013121

  9 H s       :     1.003376  s :     1.003376
      pz      :     0.011245  p :     0.032646
      px      :     0.009649
      py      :     0.011751

 10 H s       :     1.003961  s :     1.003961
      pz      :     0.016485  p :     0.031144
      px      :     0.008937
      py      :     0.005722

 11 H s       :     1.028273  s :     1.028273
      pz      :     0.005761  p :     0.029766
      px      :     0.006872
      py      :     0.017133

 12 H s       :     0.807268  s :     0.807268
      pz      :     0.055301  p :     0.118783
      px      :     0.044567
      py      :     0.018915

 13 H s       :     0.803203  s :     0.803203
      pz      :     0.026183  p :     0.120194
      px      :     0.037437
      py      :     0.056575



                      *****************************
                      * MAYER POPULATION ANALYSIS *
                      *****************************

  NA   - Mulliken gross atomic population
  ZA   - Total nuclear charge
  QA   - Mulliken gross atomic charge
  VA   - Mayer's total valence
  BVA  - Mayer's bonded valence
  FA   - Mayer's free valence

  ATOM       NA         ZA         QA         VA         BVA        FA
  0 N      7.1760     7.0000    -0.1760     3.1866     3.1866     0.0000
  1 B      4.9681     5.0000     0.0319     3.1791     3.1791     0.0000
  2 B      5.0322     5.0000    -0.0322     3.6776     3.6776    -0.0000
  3 N      7.0756     7.0000    -0.0756     3.4900     3.4900     0.0000
  4 H      0.9020     1.0000     0.0980     0.9989     0.9989     0.0000
  5 H      0.8970     1.0000     0.1030     0.9991     0.9991    -0.0000
  6 H      0.8928     1.0000     0.1072     0.9929     0.9929    -0.0000
  7 H      1.0455     1.0000    -0.0455     0.9658     0.9658     0.0000
  8 H      1.0409     1.0000    -0.0409     0.9694     0.9694    -0.0000
  9 H      1.0348     1.0000    -0.0348     0.9671     0.9671     0.0000
 10 H      1.0614     1.0000    -0.0614     0.9626     0.9626    -0.0000
 11 H      1.0927     1.0000    -0.0927     0.9415     0.9415    -0.0000
 12 H      0.8937     1.0000     0.1063     0.9960     0.9960    -0.0000
 13 H      0.8874     1.0000     0.1126     1.0006     1.0006    -0.0000

  Mayer bond orders larger than 0.100000
B(  0-N ,  2-B ) :   0.1817 B(  0-N ,  4-H ) :   0.9789 B(  0-N ,  5-H ) :   0.9749 
B(  0-N ,  6-H ) :   0.9818 B(  1-B ,  7-H ) :   0.9845 B(  1-B ,  8-H ) :   0.9887 
B(  1-B ,  9-H ) :   0.9814 B(  2-B ,  3-N ) :   1.5405 B(  2-B , 10-H ) :   0.9207 
B(  2-B , 11-H ) :   0.9428 B(  3-N , 12-H ) :   0.9609 B(  3-N , 13-H ) :   0.9563 


-------
TIMINGS
-------

Total SCF time: 0 days 0 hours 0 min 5 sec 

Total time                  ....       5.366 sec
Sum of individual times     ....       5.040 sec  ( 93.9%)

SCF preparation             ....       0.175 sec  (  3.3%)
Fock matrix formation       ....       4.685 sec  ( 87.3%)
  Startup                   ....       0.004 sec  (  0.1% of F)
  Split-RI-J                ....       0.365 sec  (  7.8% of F)
  Chain of spheres X        ....       3.430 sec  ( 73.2% of F)
  XC integration            ....       1.060 sec  ( 22.6% of F)
    XC Preparation          ....       0.000 sec  (  0.0% of XC)
    Basis function eval.    ....       0.322 sec  ( 30.4% of XC)
    Density eval.           ....       0.155 sec  ( 14.6% of XC)
    XC-Functional eval.     ....       0.072 sec  (  6.8% of XC)
    XC-Potential eval.      ....       0.159 sec  ( 15.0% of XC)
Diagonalization             ....       0.000 sec  (  0.0%)
Density matrix formation    ....       0.024 sec  (  0.5%)
Total Energy calculation    ....       0.014 sec  (  0.3%)
Population analysis         ....       0.012 sec  (  0.2%)
Orbital Transformation      ....       0.015 sec  (  0.3%)
Orbital Orthonormalization  ....       0.000 sec  (  0.0%)
DIIS solution               ....       0.067 sec  (  1.2%)
SOSCF solution              ....       0.049 sec  (  0.9%)
Finished LeanSCF after   5.4 sec

Maximum memory used throughout the entire LEANSCF-calculation: 9.6 MB


-------------------------------------------------------------------------------
                          DFT DISPERSION CORRECTION                            
                                                                               
                              DFTD3 V3.1  Rev 1                                
                          USING Becke-Johnson damping                          
-------------------------------------------------------------------------------
The B3LYP functional is recognized
Active option DFTDOPT                   ...         4   

molecular C6(AA) [au] = 1346.597716 


            DFT-D V3
 parameters
 s6 scaling factor         :     1.0000 
 a1 scaling factor         :     0.3981 
 s8 scaling factor         :     1.9889 
 a2 scaling factor         :     4.4211 
 ad hoc parameters k1-k3   :    16.0000     1.3333    -4.0000 

 Edisp/kcal,au: -8.492067393140  -0.013532969363 
 E6   /kcal   :  -4.224440558 
 E8   /kcal   :  -4.267626835 
 % E8         :  50.254274227 

-------------------------   ----------------
Dispersion correction           -0.013532969
-------------------------   ----------------


-------------------------   --------------------
FINAL SINGLE POINT ENERGY      -164.981005085188
-------------------------   --------------------



           ************************************************************
           *        Program running with 6 parallel MPI-processes     *
           *              working on a common directory               *
           ************************************************************
------------------------------------------------------------------------------
                         ORCA SCF GRADIENT CALCULATION
------------------------------------------------------------------------------

Nuc. rep. gradient        (SHARK) ... done (  0.0 sec)
HCore & Overlap gradient  (SHARK) ... done (  0.0 sec)
Split-RIJ-J gradient      (SHARK) ... done (  0.1 sec)
done (  2.0 sec)
XC gradient                       ... done (  0.5 sec)
Dispersion correction             ... done (  0.0 sec)

-------------------
DISPERSION GRADIENT
-------------------

   1   N   :    0.000239481   -0.000519455    0.000274655
   2   B   :    0.000580934    0.000440926   -0.000300090
   3   B   :   -0.000601474   -0.000114846   -0.000160443
   4   N   :   -0.000525435    0.000211259    0.000113691
   5   H   :    0.000106091   -0.000224384    0.000195799
   6   H   :    0.000174933   -0.000186880    0.000162041
   7   H   :    0.000113150   -0.000289599    0.000066632
   8   H   :    0.000263285    0.000199573   -0.000041376
   9   H   :    0.000196996    0.000154234   -0.000131813
  10   H   :    0.000215540    0.000147112   -0.000113270
  11   H   :   -0.000219541   -0.000037773   -0.000158003
  12   H   :   -0.000187996   -0.000050879   -0.000076109
  13   H   :   -0.000159495    0.000096167    0.000103054
  14   H   :   -0.000196469    0.000174544    0.000065232

Difference to translation invariance:
           :    0.0000000000   -0.0000000000   -0.0000000000

Difference to rotation invariance:
           :    0.0000000000    0.0000000000    0.0000000000

Norm of the Dispersion gradient    ...    0.0016001410
RMS gradient                       ...    0.0002469071
MAX gradient                       ...    0.0006014736

------------------
CARTESIAN GRADIENT
------------------

   1   N   :   -0.000048088    0.000104784    0.000029257
   2   B   :    0.000067631   -0.000033315   -0.000088643
   3   B   :   -0.000037465   -0.000044435    0.000003758
   4   N   :   -0.000072433    0.000031677   -0.000057871
   5   H   :    0.000015349   -0.000006981    0.000047197
   6   H   :   -0.000030986    0.000047663    0.000015399
   7   H   :    0.000006529   -0.000110278   -0.000101231
   8   H   :    0.000004490   -0.000010539    0.000036886
   9   H   :    0.000022481    0.000008005    0.000004373
  10   H   :   -0.000007462   -0.000006964    0.000013058
  11   H   :    0.000053190    0.000067147    0.000024649
  12   H   :    0.000031604    0.000007156    0.000016528
  13   H   :    0.000003316    0.000003502    0.000080308
  14   H   :   -0.000008156   -0.000057422   -0.000023670

Difference to translation invariance:
           :   -0.0000000000    0.0000000001    0.0000000000

Difference to rotation invariance:
           :   -0.0000739486   -0.0000446545    0.0000117820

Norm of the Cartesian gradient     ...    0.0003018838
RMS gradient                       ...    0.0000465817
MAX gradient                       ...    0.0001102782

-------
TIMINGS
-------

Total SCF gradient time     ....        2.722 sec

Densities                   ....       0.000 sec  (  0.0%)
One electron gradient       ....       0.024 sec  (  0.9%)
RI-J Coulomb gradient       ....       0.144 sec  (  5.3%)
COSX gradient               ....       1.998 sec  ( 73.4%)
XC gradient                 ....       0.511 sec  ( 18.8%)

Maximum memory used throughout the entire SCFGRAD-calculation: 27.4 MB


           ************************************************************
           *        Program running with 6 parallel MPI-processes     *
           *              working on a common directory               *
           ************************************************************

------------------------------------------------------------------------------
                              ORCA PROPERTY CALCULATIONS
------------------------------------------------------------------------------

GBWName                                 ... orca.gbw
Number of atoms                         ...     14
Number of basis functions               ...    106
Max core memory                         ...   4096 MB

Electric properties:
Dipole moment                           ... YES
Quadrupole moment                       ...  NO
Static polarizability (Dipole/Dipole)   ...  NO
Static polarizability (Dipole/Quad.)    ...  NO
Static polarizability (Quad./Quad.)     ...  NO
Static polarizability (Velocity)        ...  NO
Static hyperpolarizability              ...  NO

Atomic electric properties:
Dipole moment                           ...  NO
Quadrupole moment                       ...  NO
Static polarizability                   ...  NO

Choice of electric origin               ... Center of mass
Position of electric origin             ...    -0.384091     0.061308     0.085200

General magnetic properties:
Magnetizability                         ...  NO

EPR properties:
g-Tensor (aka g-matrix)                 ...  NO
Zero-Field splitting spin-orbit         ...  NO
Zero-field splitting spin-spin          ...  NO
Hyperfine couplings                     ...  NO (   0 nuclei)
Quadrupole couplings                    ...  NO (   0 nuclei)
Contact density                         ...  NO (   0 nuclei)

NMR properties:
Chemical shifts                         ...  NO (   0 nuclei)
Spin-rotation constants                 ...  NO (   0 nuclei)
Spin-spin couplings                     ...  NO (   0 nuclei,    0 pairs)

Choice of magnetic origin               ... GIAO
Position of magnetic origin             ...     0.000000     0.000000     0.000000

Properties with geometric perturbations:
SCF Hessian                             ...  NO
IR spectrum                             ...  NO
VCD spectrum                            ...  NO
X-ray spectroscopy properties:
SCF XES/XAS/RIXS spectra                ...  NO

SCF SOC stabilization energy            ...  NO
Diagonal Born-Oppenheimer correction    ...  NO

-------------
DIPOLE MOMENT
-------------

Method             : SCF
Type of density    : Electron Density
Multiplicity       :   1
Irrep              :   0
Energy             :  -164.9674721158254158 Eh
Basis              : AO
                                X                 Y                 Z
Electronic contribution:     -2.134530124       0.999085826       0.366791957
Nuclear contribution   :      2.420326728      -1.255198382       0.571736292
                        -----------------------------------------
Total Dipole Moment    :      0.285796605      -0.256112556       0.938528249
                        -----------------------------------------
Magnitude (a.u.)       :      1.013956909
Magnitude (Debye)      :      2.577273644



--------------------
Rotational spectrum 
--------------------
 
Rotational constants in cm-1:             0.179627             0.129412             0.087296 
Rotational constants in MHz :          5385.076012          3879.680904          2617.059680 

Dipole components along the rotational axes: 
x,y,z [a.u.] :     0.328928    -0.526432     0.801739 
x,y,z [Debye]:     0.836068    -1.338083     2.037858 

 

Dipole moment calculation done in   0.0 sec 

Maximum memory used throughout the entire PROP-calculation: 5.5 MB

--------------------------------
SUGGESTED CITATIONS FOR THIS RUN
--------------------------------

Below you find a list of papers that are relevant to this ORCA run
We neither can nor want to force you to cite these papers, but we appreciate if you do
You receive ORCA, which is the product of decades of hard work by many enthusiastic individuals, for free
The only thing we kindly ask in return is that you cite our papers,
We deeply appreciate it, if you show your appreciation for ORCA by not just citing the generic ORCA reference.

Please note that relegating all ORCA citations to the supporting information does *not* help us.
SI sections are not indexed - citations you put there will not count into any citation statistics
But we need these citations in order to attract the funding resources that allow us to do what we are doing

Therefore, if you are a happy ORCA user, please consider citing a few of the papers listed below in the main body of your paper

In addition to the list printed below, the program has created the file orca.bibtex that contains the list in bibtex format
You can import this file easily into all common literature databanks and citation aid programs


List of essential papers. We consider these as the minimum necessary citations

  1. Neese, F.
     Software update: the ORCA program system, version 6.0
     WIRES Comput. Molec. Sci. 2025 15(1), e70019
     doi.org/10.1002/wcms.7019

List of papers to cite with high priority. The work reported in these papers was absolutely
necessary for this run to complete.
Our perspective: the developers of density functionals and basis sets usually get cited in chemistry papers
Good! But without the algorithms to do something with them, the functionals or basis sets would not do anything.
Hence, in our opinion, the algorithm design and method developments papers are equally worthy of getting cited

  1. Neese, F.
     An improvement of the resolution of the identity approximation for the formation of the Coulomb matrix
     J. Comp. Chem. 2003 24(14), 1740-1747
     doi.org/10.1002/jcc.10318
  2. Neese, F.; Wennmohs, F.; Hansen, A.; Becker, U.
     Efficient, approximate and parallel Hartree-Fock and hybrid DFT calculations. A 'chain-of-spheres' algorithm for the Hartree-Fock exchange
     Chem. Phys. 2009 356(1-3), 98-109
     doi.org/10.1016/j.chemphys.2008.10.036
  3. Grimme, S.; Antony, J.; Ehrlich, S.; Krieg, H.
     A consistent and accurate ab initio parametrization of density functional dispersion correction (DFT-D) for the 94 elements H-Pu
     J. Chem. Phys. 2010 132 , 154104
     doi.org/10.1063/1.3382344
  4. Grimme, S.; Ehrlich, S.; Goerigk, L.
     Effect of the damping function in dispersion corrected density functional theory
     J. Comput. Chem. 2011 32(7), 1456-1465
     doi.org/10.1002/jcc.21759
  5. Helmich-Paris, B.; de Souza, B.; Neese, F.; Izsák, R.
     An improved chain of spheres for exchange algorithm
     J. Chem. Phys. 2021 155(10), 104109
     doi.org/10.1063/5.0058766
  6. Neese, F.
     The SHARK Integral Generation and Digestion System
     J. Comp. Chem. 2022 44(3), 381
     doi.org/10.1002/jcc.26942

List of suggested additional citations. These are papers that are important in the 'surrounding' of 
of this run, or papers that preceded the highly important papers. If you like your results we are grateful for a citation.

  1. Izsak, R.; Neese, F.
     An overlap fitted chain of spheres exchange method
     J. Chem. Phys. 2011 135 , 144105
     doi.org/10.1063/1.3646921
  2. Izsak, R.; Hansen, A.; Neese, F.
     The resolution of identity and chain of spheres approximations for the LPNO-CCSD singles Fock term
     Molec. Phys. 2012 110 , 2413-2417
     doi.org/10.1080/00268976.2012.687466
  3. Neese, F.
     The ORCA program system
     WIRES Comput. Molec. Sci. 2012 2(1), 73-78
     doi.org/10.1002/wcms.81
  4. Izsak, R.; Neese, F.; Klopper, W.
     Robust fitting techniques in the chain of spheres approximation to the Fock exchange: The role of the complementary space
     J. Chem. Phys. 2013 139 , 
     doi.org/10.1063/1.4819264
  5. Neese, F.
     Software update: the ORCA program system, version 4.0
     WIRES Comput. Molec. Sci. 2018 8(1), 1-6
     doi.org/10.1002/wcms.1327
  6. Neese, F.; Wennmohs, F.; Becker, U.; Riplinger, C.
     The ORCA quantum chemistry program package
     J. Chem. Phys. 2020 152(22), 224108
     doi.org/10.1063/5.0004608
  7. Neese, F.
     Software update: The ORCA program system—Version 5.0
     WIRES Comput. Molec. Sci. 2022 12(1), e1606
     doi.org/10.1002/wcms.1606

List of optional additional citations

  1. Neese, F.
     Approximate second-order SCF convergence for spin unrestricted wavefunctions
     Chem. Phys. Lett. 2000 325(1-3), 93-98
     doi.org/10.1016/s0009-2614(00)00662-x

Timings for individual modules:

Sum of individual times          ...       11.024 sec (=   0.184 min)
Startup calculation              ...        1.126 sec (=   0.019 min)  10.2 %
SCF iterations                   ...        6.285 sec (=   0.105 min)  57.0 %
Property calculations            ...        0.443 sec (=   0.007 min)   4.0 %
SCF Gradient evaluation          ...        3.170 sec (=   0.053 min)  28.8 %
                             ****ORCA TERMINATED NORMALLY****
TOTAL RUN TIME: 0 days 0 hours 0 minutes 11 seconds 584 msec
