
                                 *****************
                                 * O   R   C   A *
                                 *****************

                                            #,                                       
                                            ###                                      
                                            ####                                     
                                            #####                                    
                                            ######                                   
                                           ########,                                 
                                     ,,################,,,,,                         
                               ,,#################################,,                 
                          ,,##########################################,,             
                       ,#########################################, ''#####,          
                    ,#############################################,,   '####,        
                  ,##################################################,,,,####,       
                ,###########''''           ''''###############################       
              ,#####''   ,,,,##########,,,,          '''####'''          '####       
            ,##' ,,,,###########################,,,                        '##       
           ' ,,###''''                  '''############,,,                           
         ,,##''                                '''############,,,,        ,,,,,,###''
      ,#''                                            '''#######################'''  
     '                                                          ''''####''''         
             ,#######,   #######,   ,#######,      ##                                
            ,#'     '#,  ##    ##  ,#'     '#,    #''#        ,####,    ,#,          
            ##       ##  ##   ,#'  ##            #'  '#       #'       ,# #          
            ##       ##  #######   ##           ,######,      #####,      #          
            '#,     ,#'  ##    ##  '#,     ,#' ,#      #,     #,   #      #          
             '#######'   ##     ##  '#######'  #'      '#     '####' #    #          



                #########################################################
                #                        -***-                          #
                #          Department of theory and spectroscopy        #
                #                                                       #
                #                      Frank Neese                      #
                #                                                       #
                #     Directorship, Architecture, Infrastructure        #
                #                    SHARK, DRIVERS                     #
                #        Core code/Algorithms in most modules           #
                #                                                       #
                #        Max Planck Institute fuer Kohlenforschung      #
                #                Kaiser Wilhelm Platz 1                 #
                #                 D-45470 Muelheim/Ruhr                 #
                #                      Germany                          #
                #                                                       #
                #                  All rights reserved                  #
                #                        -***-                          #
                #########################################################


                         Program Version 6.1.0  -  RELEASE   -
                                (GIT: $679e74b$)
                          ($2025-06-10 18:02:51 +0200$)


 With contributions from (in alphabetic order):
[Max-Planck-Institut fuer Kohlenforschung]                               
  Daniel Aravena         : Magnetic Suceptibility                        
  Michael Atanasov       : Ab Initio Ligand Field Theory (pilot matlab implementation)
  Alexander A. Auer      : GIAO ZORA, VPT2 properties, NMR spectrum      
  Ute Becker             : All parallelization in ORCA, NUMFREQ, NUMCALC 
  Giovanni Bistoni       : ED, misc. LED, open-shell LED, HFLD           
  Dmytro Bykov           : pre 5.0 version of the SCF Hessian            
  Marcos Casanova-Páez   : Triplet and SCS-CIS(D). UHF-(DLPNO)-IP/EA/STEOM-CCSD. UHF-CVS-IP/STEOM-CCSD   
  Vijay G. Chilkuri      : MRCI spin determinant printing, contributions to CSF-ICE 
  Pauline Colinet        : FMM embedding                                 
  Dipayan Datta          : RHF DLPNO-CCSD density                        
  Achintya Kumar Dutta   : EOM-CC, STEOM-CC                              
  Nicolas Foglia         : Exact transition moments, OPA infrastructure, MCD improvements    
  Dmitry Ganyushin       : Spin-Orbit,Spin-Spin,Magnetic field MRCI      
  Miquel Garcia-Rates    : C-PCM and meta-GGA Hessian, CCSD/C-PCM, Gaussian charge scheme 
  Tiago L. C. Gouveia    : GS-ROHF, GS-ROCIS                             
  Yang Guo               : DLPNO-NEVPT2, F12-NEVPT2, CIM, IAO-localization        
  Andreas Hansen         : Spin unrestricted coupled pair/coupled cluster methods 
  Ingolf Harden          : AUTO-CI MPn and infrastructure                
  Benjamin Helmich-Paris : MC-RPA, TRAH-(SCF,CASSCF), AVAS, COSX integrals, SCF dyn. polar., MC-PDFT, srDFT 
  Lee Huntington         : MR-EOM, pCC                                   
  Robert Izsak           : Overlap fitted RIJCOSX, COSX-SCS-MP3, EOM     
  Riya Kayal             : Wick's Theorem for AUTO-CI, AUTO-CI UHF-CCSDT 
  Emily Kempfer          : AUTO-CI RHF CISDT and CCSDT, approximate NEVPT4
  Christian Kollmar      : KDIIS, OOCD, Brueckner-CCSD(T), CCSD density, CASPT2, CASPT2-K, improved NEVPT2 
  Axel Koslowski         : Symmetry handling                             
  Simone Kossmann        : meta-GGA functionals, TD-DFT gradient, OOMP2, (MP2 Hessian; deprecated post 5.0) 
  Lucas Lang             : DCDCAS, Hyperfine gauge corrections, ICE-SOC+SSC
  Marvin Lechner         : AUTO-CI (C++ implementation), FIC-MRCC        
  Spencer Leger          : CASSCF response                               
  Dagmar Lenk            : GEPOL surface, SMD, ORCA-2-JSON               
  Dimitrios Liakos       : Extrapolation schemes; Compound Job, Property file
  Dimitrios Manganas     : Further ROCIS development; embedding schemes. LFT, Crystal Embedding 
  Dimitrios Pantazis     : SARC Basis sets                               
  Anastasios Papadopoulos: AUTO-CI, single reference methods and gradients 
  Taras Petrenko         : pre 6.0 DFT Hessian and TD-DFT gradient,  ECA, NRVS 
  Petra Pikulova         : Analytic Raman intensities                    
  Peter Pinski           : DLPNO-MP2, DLPNO-MP2 Gradient                 
  Shashank Vittal Rao    : ES-AILFT, MagRelax                            
  Christoph Reimann      : Effective Core Potentials                     
  Marius Retegan         : Local ZFS, SOC                                
  Christoph Riplinger    : Optimizer, TS searches, QM/MM, DLPNO-CCSD(T), (RO)-DLPNO pert. Triples 
  Michael Roemelt        : Original ROCIS implementation, recursive CI coupling coefficients
  Masaaki Saitow         : Open-shell DLPNO-CCSD energy and density      
  Barbara Sandhoefer     : DKH picture change effects                    
  Yorick L. A. Schmerwitz: GMF and freeze-and-release deltaSCF, NEB S-IDPP initial path                    
  Kantharuban Sivalingam : CASSCF convergence/infrastructure, NEVPT2, NEVPT3, NEVPT4(SD), FIC-MRCI and CEPA variants
  Bernardo de Souza      : ESD, SOC TD-DFT                               
  Georgi L. Stoychev     : AutoAux, RI-MP2 NMR, DLPNO-MP2 response, X2C  
  Van Anh Tran           : RI-MP2 g-tensors                              
  Willem Van den Heuvel  : Paramagnetic NMR                              
  Zikuan Wang            : NOTCH, Electric field optimization            
  Frank Wennmohs         : Technical directorship and infrastructure     
  Hang Xu                : AUTO-CI-Response properties                   
                                                                         
[FACCTs GmbH]                                                            
  Markus Bursch, Nicolas Foglia, Miquel Garcia-Rates, Ingolf Harden, Hagen Neugebauer, Anastasios Papadopoulos, 
  Christoph Riplinger, Bernardo de Souza, Georgi L. Stoychev                                                    
                                                                 
  APM, various basis sets, CI-OPT, improved COSX, DLPNO-Multilevel,           
  DOCKER, DRACO, updates on ESD, Fragmentator, GOAT, IRC, LR-CPCM, L-BFGS, MBIS, meta-GGA TD-DFT gradient, ML-optimized integration grids, 
  MM, NACMEs, nearIR, NEB, NEB-TS, NL-DFT gradient (VV10), 2- and 3-layer-ONIOM, interface openCOSMO-RS, QMMM,   
  Crystal-QMMM, RESP, rigid body optimization, SF, symmetry and pop. for TD-DFT, various functionals, SOLVATOR                                   
                                                                         
[Other institutions]                                                     
  V. Asgeirsson          : NEB                                           
  Christoph Bannwarth    : sTDA-DFT, sTD-DFT, PBEh-3c, B97-3c, D3        
  Giovanni Bistoni       : ETS/NOCV, ADLD/ADEX, COVALED                  
  Martin Brehm           : Molecular dynamics                            
  Ronald Cardenas        : ETS/NOCV                                      
  Martina Colucci        : COVALED                                       
  Sebastian Ehlert       : rSCAN, r2SCAN, r2SCAN-3c, D4, dhf basis sets  
  Marvin Friede          : D4 for Fr, Ra, Ac-Lr                          
  Lars Goerigk           : TD-DFT with DH, B97 family of functionals     
  Stefan Grimme          : VdW corrections, initial TS optimization, DFT functionals, gCP, sTDA/sTD-DF 
  Waldemar Hujo          : DFT-NL                                        
  H. Jonsson             : NEB                                           
  Holger Kruse           : gCP                                           
  Marcel Mueller         : wB97X-3c, vDZP basis set                      
  Hagen Neugebauer       : wr2SCAN, Native XTB                           
  Gianluca Regni         : ADLD/ADEX                                     
  Tobias Risthaus        : pre 6.0 range-separated hybrid DFT and stability analysis
  Lukas Wittmann         : regularized MP2, r2SCAN double-hybrids, wr2SCAN        
                                                                         
We gratefully acknowledge several colleagues who have allowed us to      
interface, adapt or use parts of their codes:                            
  Ed Valeev, F. Pavosevic, A. Kumar             : LibInt (2-el integral package), F12 methods 
  Garnet Chan, S. Sharma, J. Yang, R. Olivares  : DMRG                   
  Ulf Ekstrom                                   : XCFun DFT Library      
  Mihaly Kallay                                 : mrcc  (arbitrary order and MRCC methods)
  Frank Weinhold                                : gennbo (NPA and NBO analysis)           
  Simon Mueller                                 : openCOSMO-RS                            
  Christopher J. Cramer and Donald G. Truhlar   : smd solvation model                     
  S Lehtola, MJT Oliveira, MAL Marques          : LibXC Library                           
  Liviu Ungur et al                             : ANISO software                          


 Your calculation uses the libint2 library for the computation of 2-el integrals
 For citations please refer to: http://libint.valeyev.net

 Your ORCA version has been built with support for libXC version: 7.0.0
 For citations please refer to: https://libxc.gitlab.io

 This ORCA versions uses:
   CBLAS   interface :  Fast vector & matrix operations
   LAPACKE interface :  Fast linear algebra routines
   SCALAPACK package :  Parallel linear algebra routines
   Shared memory     :  Shared parallel matrices
   BLAS/LAPACK       :  OpenBLAS 0.3.29  USE64BITINT DYNAMIC_ARCH NO_AFFINITY Zen SINGLE_THREADED
        Core in use  :  Zen
   Copyright (c) 2011-2014, The OpenBLAS Project


  ***********************************
  * Starting time: Wed Sep 10 13:38:08 2025
  * Host name:     wyk-Server
  * Process ID:    2307838
  * Working dir.:  /home/wyk/Documents/code/openQDC/MGMR/singlepointcalc/97/react
  ***********************************

Your calculation utilizes the atom-pairwise dispersion correction
with the Becke-Johnson damping scheme (D3BJ)


Warning: RI is on but no J-basis has been assigned. Assigning Def2/J (nothing to worry about!)
================================================================================

----- Orbital basis set information -----
Your calculation utilizes the basis: def2-SVP
   F. Weigend and R. Ahlrichs, Phys. Chem. Chem. Phys. 7, 3297 (2005).

----- AuxJ basis set information -----
Your calculation utilizes the auxiliary basis: def2/J
   H-Rn: F. Weigend, Phys. Chem. Chem. Phys. 8, 1057 (2006).
   Fr-Lr: K. Eichkorn, F. Weigend, O. Treutler, R. Ahlrichs; Theor. Chem. Acc. 97, 119 (1997).

================================================================================
                                        WARNINGS
                       Please study these warnings very carefully!
================================================================================


WARNING: your system is open-shell and RHF/RKS was chosen
  ===> : WILL SWITCH to UHF/UKS


================================================================================
                                       INPUT FILE
================================================================================
NAME = orca.inp
|  1> ! B3LYP def2-SVP d3 EnGrad 
|  2> %pal nprocs 6 end 
|  3> *xyz 0 2 
|  4> C   -1.76103410210992 0.9274059950273 -1.16508612220028
|  5> C   -0.95040563339193 0.74912965487219 0.09317160688004
|  6> C   -1.65418481883881 -0.27091623352159 1.06363842354291
|  7> C   -1.84277972476461 -1.63164401132094 0.31163664625936
|  8> C   -2.57929409606475 -1.4536002366392 -1.03257234730772
|  9> C   -2.01669320926886 -0.33186742037452 -1.93423814018509
| 10> H   -2.58216316186502 -2.41249276322629 -1.57943044720318
| 11> H   -3.63622289431147 -1.22169678916881 -0.82421113087901
| 12> H   -1.07314995746673 -0.68079091115179 -2.39500199778031
| 13> H   -2.71316532357836 -0.15053815253634 -2.76921375301634
| 14> C   -2.48605568860642 2.19228703862449 -1.49422954787749
| 15> H   -1.82259019147112 3.07579846668189 -1.52007546057139
| 16> H   -2.97874497685558 2.1228629987388 -2.47669950443356
| 17> H   -3.27588191160126 2.43693253411878 -0.75273340857917
| 18> C   -0.57660724418211 -2.53340790880611 0.19424425093392
| 19> C   -0.5041850072441 2.07041233268413 0.73778946327343
| 20> C   0.5760399602865 -2.06023177818523 -0.64816183689756
| 21> H   -0.22973855075016 -2.78578893470455 1.20532787631951
| 22> C   0.69648875332422 2.7004184995899 -0.00610514194855
| 23> C   1.94246471629115 1.84434728958135 0.08352573311906
| 24> H   0.8962470023899 3.69913947329315 0.42181083697093
| 25> C   -0.81121456121455 -0.49461426544423 2.33018806264872
| 26> H   -0.87751156382126 0.36374465044189 3.0149964345842
| 27> H   -1.17222673724137 -1.37620102664662 2.88561895560002
| 28> C   -3.03023679346856 0.26472719614184 1.49953612397459
| 29> H   -2.92350001657524 1.22609460802291 2.02657423304285
| 30> H   -3.70452270568342 0.42924177246471 0.64711272138531
| 31> H   -3.52456822133318 -0.43884503114873 2.18994848264067
| 32> H   -1.3318642322205 2.79618349862206 0.77042775388472
| 33> H   -0.21611968189373 1.90564831593666 1.78545553183812
| 34> H   0.42864994743463 2.85121087753567 -1.06398377648756
| 35> C   2.3242870208968 1.08641171360084 -0.96001734406803
| 36> H   1.72584932238732 1.16824918121396 -1.87717007149945
| 37> C   3.41708571270509 0.058974760025 -1.02185872688748
| 38> H   4.12724300716636 0.31274686513956 -1.83007324829836
| 39> H   4.00594456548135 0.04449811082119 -0.09260628204888
| 40> C   2.8585178199238 -1.35656325204779 -1.31333729043581
| 41> H   2.38853182900536 -1.35404232233078 -2.31070621896579
| 42> H   3.71135694025569 -2.05914377072446 -1.36674985050525
| 43> C   1.85653204791836 -1.84943599246616 -0.29070963841566
| 44> H   -0.02503655366912 0.2264154854601 -0.19788217317762
| 45> H   0.33983799429531 -1.89290032258308 -1.70402634636117
| 46> C   2.6305449434104 1.85109164640248 1.42448148539398
| 47> H   2.89216757538044 2.88240885557687 1.71903348797846
| 48> H   1.96412177287796 1.46193237941795 2.21360196888005
| 49> H   3.5512504581957 1.25335210408477 1.44014908187721
| 50> C   2.39577045999963 -2.03508656061678 1.10371612562286
| 51> H   3.34420584081322 -2.59940575861081 1.08050324031839
| 52> H   2.6200573699913 -1.06396379440698 1.57643320104865
| 53> H   1.70080575044907 -2.57119771483779 1.7628672768206
| 54> H   -0.93735792365391 -3.48481844818318 -0.24022562786787
| 55> H   -2.52010256509034 -2.22579877182611 0.9521874650236
| 56> H   0.25006523735685 -0.65297413261151 2.09561996403643
| 57> *
| 58> 
| 59>                          ****END OF INPUT****
================================================================================

                     *******************************
                     * Energy+Gradient Calculation *
                     *******************************

---------------------------------
CARTESIAN COORDINATES (ANGSTROEM)
---------------------------------
  C     -1.761034    0.927406   -1.165086
  C     -0.950406    0.749130    0.093172
  C     -1.654185   -0.270916    1.063638
  C     -1.842780   -1.631644    0.311637
  C     -2.579294   -1.453600   -1.032572
  C     -2.016693   -0.331867   -1.934238
  H     -2.582163   -2.412493   -1.579430
  H     -3.636223   -1.221697   -0.824211
  H     -1.073150   -0.680791   -2.395002
  H     -2.713165   -0.150538   -2.769214
  C     -2.486056    2.192287   -1.494230
  H     -1.822590    3.075798   -1.520075
  H     -2.978745    2.122863   -2.476700
  H     -3.275882    2.436933   -0.752733
  C     -0.576607   -2.533408    0.194244
  C     -0.504185    2.070412    0.737789
  C      0.576040   -2.060232   -0.648162
  H     -0.229739   -2.785789    1.205328
  C      0.696489    2.700418   -0.006105
  C      1.942465    1.844347    0.083526
  H      0.896247    3.699139    0.421811
  C     -0.811215   -0.494614    2.330188
  H     -0.877512    0.363745    3.014996
  H     -1.172227   -1.376201    2.885619
  C     -3.030237    0.264727    1.499536
  H     -2.923500    1.226095    2.026574
  H     -3.704523    0.429242    0.647113
  H     -3.524568   -0.438845    2.189948
  H     -1.331864    2.796183    0.770428
  H     -0.216120    1.905648    1.785456
  H      0.428650    2.851211   -1.063984
  C      2.324287    1.086412   -0.960017
  H      1.725849    1.168249   -1.877170
  C      3.417086    0.058975   -1.021859
  H      4.127243    0.312747   -1.830073
  H      4.005945    0.044498   -0.092606
  C      2.858518   -1.356563   -1.313337
  H      2.388532   -1.354042   -2.310706
  H      3.711357   -2.059144   -1.366750
  C      1.856532   -1.849436   -0.290710
  H     -0.025037    0.226415   -0.197882
  H      0.339838   -1.892900   -1.704026
  C      2.630545    1.851092    1.424481
  H      2.892168    2.882409    1.719033
  H      1.964122    1.461932    2.213602
  H      3.551250    1.253352    1.440149
  C      2.395770   -2.035087    1.103716
  H      3.344206   -2.599406    1.080503
  H      2.620057   -1.063964    1.576433
  H      1.700806   -2.571198    1.762867
  H     -0.937358   -3.484818   -0.240226
  H     -2.520103   -2.225799    0.952187
  H      0.250065   -0.652974    2.095620

----------------------------
CARTESIAN COORDINATES (A.U.)
----------------------------
  NO LB      ZA    FRAG     MASS         X           Y           Z
   0 C     6.0000    0    12.011   -3.327872    1.752543   -2.201694
   1 C     6.0000    0    12.011   -1.796006    1.415650    0.176069
   2 C     6.0000    0    12.011   -3.125956   -0.511957    2.009985
   3 C     6.0000    0    12.011   -3.482349   -3.083360    0.588908
   4 C     6.0000    0    12.011   -4.874159   -2.746906   -1.951279
   5 C     6.0000    0    12.011   -3.810998   -0.627139   -3.655180
   6 H     1.0000    0     1.008   -4.879581   -4.558951   -2.984691
   7 H     1.0000    0     1.008   -6.871465   -2.308672   -1.557533
   8 H     1.0000    0     1.008   -2.027960   -1.286508   -4.525898
   9 H     1.0000    0     1.008   -5.127139   -0.284476   -5.233056
  10 C     6.0000    0    12.011   -4.697964    4.142822   -2.823685
  11 H     1.0000    0     1.008   -3.444196    5.812417   -2.872526
  12 H     1.0000    0     1.008   -5.629012    4.011630   -4.680284
  13 H     1.0000    0     1.008   -6.190520    4.605135   -1.422460
  14 C     6.0000    0    12.011   -1.089630   -4.787447    0.367068
  15 C     6.0000    0    12.011   -0.952772    3.912512    1.394220
  16 C     6.0000    0    12.011    1.088558   -3.893274   -1.224848
  17 H     1.0000    0     1.008   -0.434143   -5.264378    2.277740
  18 C     6.0000    0    12.011    1.316173    5.103051   -0.011537
  19 C     6.0000    0    12.011    3.670726    3.485311    0.157841
  20 H     1.0000    0     1.008    1.693661    6.990361    0.797107
  21 C     6.0000    0    12.011   -1.532973   -0.934686    4.403417
  22 H     1.0000    0     1.008   -1.658257    0.687378    5.697518
  23 H     1.0000    0     1.008   -2.215188   -2.600643    5.453030
  24 C     6.0000    0    12.011   -5.726318    0.500262    2.833713
  25 H     1.0000    0     1.008   -5.524614    2.316983    3.829670
  26 H     1.0000    0     1.008   -7.000533    0.811149    1.222866
  27 H     1.0000    0     1.008   -6.660469   -0.829297    4.138403
  28 H     1.0000    0     1.008   -2.516859    5.284021    1.455897
  29 H     1.0000    0     1.008   -0.408407    3.601153    3.374022
  30 H     1.0000    0     1.008    0.810031    5.388008   -2.010638
  31 C     6.0000    0    12.011    4.392266    2.053021   -1.814170
  32 H     1.0000    0     1.008    3.261383    2.207671   -3.547337
  33 C     6.0000    0    12.011    6.457356    0.111446   -1.931033
  34 H     1.0000    0     1.008    7.799359    0.591006   -3.458337
  35 H     1.0000    0     1.008    7.570138    0.084089   -0.175001
  36 C     6.0000    0    12.011    5.401816   -2.563533   -2.481848
  37 H     1.0000    0     1.008    4.513671   -2.558769   -4.366602
  38 H     1.0000    0     1.008    7.013448   -3.891218   -2.582783
  39 C     6.0000    0    12.011    3.508337   -3.494928   -0.549362
  40 H     1.0000    0     1.008   -0.047312    0.427863   -0.373943
  41 H     1.0000    0     1.008    0.642201   -3.577063   -3.220143
  42 C     6.0000    0    12.011    4.971010    3.498056    2.691880
  43 H     1.0000    0     1.008    5.465405    5.446963    3.248503
  44 H     1.0000    0     1.008    3.711652    2.762652    4.183101
  45 H     1.0000    0     1.008    6.710891    2.368492    2.721487
  46 C     6.0000    0    12.011    4.527350   -3.845756    2.085721
  47 H     1.0000    0     1.008    6.319633   -4.912165    2.041855
  48 H     1.0000    0     1.008    4.951191   -2.010600    2.979027
  49 H     1.0000    0     1.008    3.214057   -4.858860    3.331336
  50 H     1.0000    0     1.008   -1.771350   -6.585352   -0.453961
  51 H     1.0000    0     1.008   -4.762304   -4.206150    1.799374
  52 H     1.0000    0     1.008    0.472555   -1.233942    3.960148

--------------------------------
INTERNAL COORDINATES (ANGSTROEM)
--------------------------------
 C      0   0   0     0.000000000000     0.00000000     0.00000000
 C      1   0   0     1.507353137306     0.00000000     0.00000000
 C      2   1   0     1.574040850341   110.53943859     0.00000000
 C      3   2   1     1.566095398388   108.71469136    57.58754253
 C      4   3   2     1.543065398232   112.05656611   306.24047240
 C      1   2   3     1.497573350651   114.90288106   302.17830346
 H      5   4   3     1.103873584476   109.42473212   173.28139369
 H      5   4   3     1.101949222979   108.50400777   288.39297962
 H      6   1   2     1.106492116060   109.47896154   289.73121335
 H      6   1   2     1.102332973021   111.01252551   173.07791944
 C      1   2   3     1.494628967337   123.01010278   110.59095465
 H     11   1   2     1.105190897809   112.98446559    56.90806691
 H     11   1   2     1.101276372036   111.10806508   177.62752692
 H     11   1   2     1.110627482818   112.60407210   297.56159995
 C      4   3   2     1.558894432562   116.16491408    78.03711177
 C      2   1   3     1.536370053948   113.87329509   228.22435463
 C     15   4   3     1.504040971973   118.85884612   293.18868590
 H     15   4   3     1.098318792628   108.66991816    60.27804406
 C     16   2   1     1.546578298482   111.96216361   282.49899337
 C     19  16   2     1.514380305822   112.33377910   295.14239419
 H     19  16   2     1.104743873664   108.80375638   173.31005529
 C      3   2   1     1.537786608423   110.91427887   178.13311848
 H     22   3   2     1.100062646993   111.47991233    74.95642930
 H     22   3   2     1.102736816113   110.59002380   193.72907674
 C      3   2   1     1.539623241532   110.40858160   297.68816580
 H     25   3   2     1.101539472093   110.63976393   299.87146299
 H     25   3   2     1.099250742331   112.38054001    59.97816465
 H     25   3   2     1.102745058746   110.85077260   180.70677593
 H     16   2   1     1.101300114764   111.15606379    44.96096936
 H     16   2   1     1.098969064217   110.31486834   161.65202186
 H     19  16   2     1.101627510823   109.20198380    56.85957717
 C     20  19  16     1.345078720215   120.40925101   102.42609728
 H     32  20  19     1.098177661190   116.82419956     3.33939349
 C     32  20  19     1.501219514601   128.62708833   187.87799021
 H     34  32  20     1.105411406143   109.91678957   236.29469373
 H     34  32  20     1.100215628004   111.33509137   353.51948610
 C     34  32  20     1.549421087851   111.75198354   116.79252955
 H     37  34  32     1.102559733685   108.76904991    63.39450763
 H     37  34  32     1.106258040407   108.14261372   178.84032872
 C     17  15   4     1.346056062712   129.01840544   121.76450561
 H      2   1   3     1.101930278873   106.69251483   111.70289682
 H     17  15   4     1.094824665011   115.01832715   299.85997161
 C     20  19  16     1.507203441762   115.19768158   286.19792507
 H     43  20  19     1.104002930125   110.47147959   303.36496958
 H     43  20  19     1.103755369074   111.03037468    61.11882237
 H     43  20  19     1.097832719036   113.14947466   182.37204740
 C     40  17  15     1.506541539398   124.54072256   358.75653397
 H     47  40  17     1.103868047752   110.55251068   133.67693517
 H     47  40  17     1.103107192635   111.15740639   251.76046705
 H     47  40  17     1.097666323309   112.91611994    12.72130530
 H     15   4   3     1.106384717340   105.19900796   172.84176360
 H      4   3   2     1.105482456160   105.22062568   191.59553503
 H     22   3   2     1.098369178042   112.00833857   314.22302176

---------------------------
INTERNAL COORDINATES (A.U.)
---------------------------
 C      0   0   0     0.000000000000     0.00000000     0.00000000
 C      1   0   0     2.848484616615     0.00000000     0.00000000
 C      2   1   0     2.974506130748   110.53943859     0.00000000
 C      3   2   1     2.959491402549   108.71469136    57.58754253
 C      4   3   2     2.915971009389   112.05656611   306.24047240
 C      1   2   3     2.830003498190   114.90288106   302.17830346
 H      5   4   3     2.086018761130   109.42473212   173.28139369
 H      5   4   3     2.082382244917   108.50400777   288.39297962
 H      6   1   2     2.090967068697   109.47896154   289.73121335
 H      6   1   2     2.083107427400   111.01252551   173.07791944
 C      1   2   3     2.824439420093   123.01010278   110.59095465
 H     11   1   2     2.088508122562   112.98446559    56.90806691
 H     11   1   2     2.081110740906   111.10806508   177.62752692
 H     11   1   2     2.098781779332   112.60407210   297.56159995
 C      4   3   2     2.945883549236   116.16491408    78.03711177
 C      2   1   3     2.903318642319   113.87329509   228.22435463
 C     15   4   3     2.842225531226   118.85884612   293.18868590
 H     15   4   3     2.075521725806   108.66991816    60.27804406
 C     16   2   1     2.922609428797   111.96216361   282.49899337
 C     19  16   2     2.861764040608   112.33377910   295.14239419
 H     19  16   2     2.087663369353   108.80375638   173.31005529
 C      3   2   1     2.905995542331   110.91427887   178.13311848
 H     22   3   2     2.078817132973   111.47991233    74.95642930
 H     22   3   2     2.083870580246   110.59002380   193.72907674
 C      3   2   1     2.909466275916   110.40858160   297.68816580
 H     25   3   2     2.081607927960   110.63976393   299.87146299
 H     25   3   2     2.077282855516   112.38054001    59.97816465
 H     25   3   2     2.083886156564   110.85077260   180.70677593
 H     16   2   1     2.081155608159   111.15606379    44.96096936
 H     16   2   1     2.076750561022   110.31486834   161.65202186
 H     19  16   2     2.081774297048   109.20198380    56.85957717
 C     20  19  16     2.541830409772   120.40925101   102.42609728
 H     32  20  19     2.075255026040   116.82419956     3.33939349
 C     32  20  19     2.836893749495   128.62708833   187.87799021
 H     34  32  20     2.088924822922   109.91678957   236.29469373
 H     34  32  20     2.079106225187   111.33509137   353.51948610
 C     34  32  20     2.927981522161   111.75198354   116.79252955
 H     37  34  32     2.083535942954   108.76904991    63.39450763
 H     37  34  32     2.090524729818   108.14261372   178.84032872
 C     17  15   4     2.543677319430   129.01840544   121.76450561
 H      2   1   3     2.082346445745   106.69251483   111.70289682
 H     17  15   4     2.068918781533   115.01832715   299.85997161
 C     20  19  16     2.848201733035   115.19768158   286.19792507
 H     43  20  19     2.086263188983   110.47147959   303.36496958
 H     43  20  19     2.085795366395   111.03037468    61.11882237
 H     43  20  19     2.074603179836   113.14947466   182.37204740
 C     40  17  15     2.846950918839   124.54072256   358.75653397
 H     47  40  17     2.086008298238   110.55251068   133.67693517
 H     47  40  17     2.084570490439   111.15740639   251.76046705
 H     47  40  17     2.074288737482   112.91611994    12.72130530
 H     15   4   3     2.090764114528   105.19900796   172.84176360
 H      4   3   2     2.089059087997   105.22062568   191.59553503
 H     22   3   2     2.075616940439   112.00833857   314.22302176

---------------------
BASIS SET INFORMATION
---------------------
There are 2 groups of distinct atoms

 Group   1 Type C   : 7s4p1d contracted to 3s2p1d pattern {511/31/1}
 Group   2 Type H   : 4s1p contracted to 2s1p pattern {31/1}

Atom   0C    basis set group =>   1
Atom   1C    basis set group =>   1
Atom   2C    basis set group =>   1
Atom   3C    basis set group =>   1
Atom   4C    basis set group =>   1
Atom   5C    basis set group =>   1
Atom   6H    basis set group =>   2
Atom   7H    basis set group =>   2
Atom   8H    basis set group =>   2
Atom   9H    basis set group =>   2
Atom  10C    basis set group =>   1
Atom  11H    basis set group =>   2
Atom  12H    basis set group =>   2
Atom  13H    basis set group =>   2
Atom  14C    basis set group =>   1
Atom  15C    basis set group =>   1
Atom  16C    basis set group =>   1
Atom  17H    basis set group =>   2
Atom  18C    basis set group =>   1
Atom  19C    basis set group =>   1
Atom  20H    basis set group =>   2
Atom  21C    basis set group =>   1
Atom  22H    basis set group =>   2
Atom  23H    basis set group =>   2
Atom  24C    basis set group =>   1
Atom  25H    basis set group =>   2
Atom  26H    basis set group =>   2
Atom  27H    basis set group =>   2
Atom  28H    basis set group =>   2
Atom  29H    basis set group =>   2
Atom  30H    basis set group =>   2
Atom  31C    basis set group =>   1
Atom  32H    basis set group =>   2
Atom  33C    basis set group =>   1
Atom  34H    basis set group =>   2
Atom  35H    basis set group =>   2
Atom  36C    basis set group =>   1
Atom  37H    basis set group =>   2
Atom  38H    basis set group =>   2
Atom  39C    basis set group =>   1
Atom  40H    basis set group =>   2
Atom  41H    basis set group =>   2
Atom  42C    basis set group =>   1
Atom  43H    basis set group =>   2
Atom  44H    basis set group =>   2
Atom  45H    basis set group =>   2
Atom  46C    basis set group =>   1
Atom  47H    basis set group =>   2
Atom  48H    basis set group =>   2
Atom  49H    basis set group =>   2
Atom  50H    basis set group =>   2
Atom  51H    basis set group =>   2
Atom  52H    basis set group =>   2
---------------------------------
AUXILIARY/J BASIS SET INFORMATION
---------------------------------
There are 2 groups of distinct atoms

 Group   1 Type C   : 12s5p4d2f1g contracted to 6s4p3d1f1g pattern {711111/2111/211/2/1}
 Group   2 Type H   : 5s2p1d contracted to 3s1p1d pattern {311/2/1}

Atom   0C    basis set group =>   1
Atom   1C    basis set group =>   1
Atom   2C    basis set group =>   1
Atom   3C    basis set group =>   1
Atom   4C    basis set group =>   1
Atom   5C    basis set group =>   1
Atom   6H    basis set group =>   2
Atom   7H    basis set group =>   2
Atom   8H    basis set group =>   2
Atom   9H    basis set group =>   2
Atom  10C    basis set group =>   1
Atom  11H    basis set group =>   2
Atom  12H    basis set group =>   2
Atom  13H    basis set group =>   2
Atom  14C    basis set group =>   1
Atom  15C    basis set group =>   1
Atom  16C    basis set group =>   1
Atom  17H    basis set group =>   2
Atom  18C    basis set group =>   1
Atom  19C    basis set group =>   1
Atom  20H    basis set group =>   2
Atom  21C    basis set group =>   1
Atom  22H    basis set group =>   2
Atom  23H    basis set group =>   2
Atom  24C    basis set group =>   1
Atom  25H    basis set group =>   2
Atom  26H    basis set group =>   2
Atom  27H    basis set group =>   2
Atom  28H    basis set group =>   2
Atom  29H    basis set group =>   2
Atom  30H    basis set group =>   2
Atom  31C    basis set group =>   1
Atom  32H    basis set group =>   2
Atom  33C    basis set group =>   1
Atom  34H    basis set group =>   2
Atom  35H    basis set group =>   2
Atom  36C    basis set group =>   1
Atom  37H    basis set group =>   2
Atom  38H    basis set group =>   2
Atom  39C    basis set group =>   1
Atom  40H    basis set group =>   2
Atom  41H    basis set group =>   2
Atom  42C    basis set group =>   1
Atom  43H    basis set group =>   2
Atom  44H    basis set group =>   2
Atom  45H    basis set group =>   2
Atom  46C    basis set group =>   1
Atom  47H    basis set group =>   2
Atom  48H    basis set group =>   2
Atom  49H    basis set group =>   2
Atom  50H    basis set group =>   2
Atom  51H    basis set group =>   2
Atom  52H    basis set group =>   2


           ************************************************************
           *        Program running with 6 parallel MPI-processes     *
           *              working on a common directory               *
           ************************************************************
------------------------------------------------------------------------------
                             ORCA STARTUP CALCULATIONS
                           -- RI-GTO INTEGRALS CHOSEN --
------------------------------------------------------------------------------
------------------------------------------------------------------------------
                   ___                                                        
                  /   \      - P O W E R E D   B Y -                         
                 /     \                                                     
                 |  |  |   _    _      __       _____    __    __             
                 |  |  |  | |  | |    /  \     |  _  \  |  |  /  |          
                  \  \/   | |  | |   /    \    | | | |  |  | /  /          
                 / \  \   | |__| |  /  /\  \   | |_| |  |  |/  /          
                |  |  |   |  __  | /  /__\  \  |    /   |      \           
                |  |  |   | |  | | |   __   |  |    \   |  |\   \          
                \     /   | |  | | |  |  |  |  | |\  \  |  | \   \       
                 \___/    |_|  |_| |__|  |__|  |_| \__\ |__|  \__/        
                                                                              
                      - O R C A' S   B I G   F R I E N D -                    
                                      &                                       
                       - I N T E G R A L  F E E D E R -                       
                                                                              
 v1 FN, 2020, v2 2021, v3 2022-2024                                           
------------------------------------------------------------------------------


----------------------
SHARK INTEGRAL PACKAGE
----------------------

Number of atoms                             ...     53
Number of basis functions                   ...    445
Number of shells                            ...    219
Maximum angular momentum                    ...      2
Integral batch strategy                     ... SHARK/LIBINT Hybrid
RI-J (if used) integral strategy            ... SPLIT-RIJ (Revised 2003 algorithm where possible)
Printlevel                                  ...      1
Contraction scheme used                     ... SEGMENTED contraction
Prescreening option                         ... SCHWARTZ
   Thresh                                   ... 2.500e-11
   Tcut                                     ... 2.500e-12
   Tpresel                                  ... 2.500e-12 
Coulomb Range Separation                    ... NOT USED
Exchange Range Separation                   ... NOT USED
Multipole approximations                    ... NOT USED
Finite Nucleus Model                        ... NOT USED
CABS basis                                  ... NOT available
Auxiliary Coulomb fitting basis             ... AVAILABLE
   # of basis functions in Aux-J            ...   1343
   # of shells in Aux-J                     ...    465
   Maximum angular momentum in Aux-J        ...      4
Auxiliary J/K fitting basis                 ... NOT available
Auxiliary Correlation fitting basis         ... NOT available
Auxiliary 'external' fitting basis          ... NOT available

Checking pre-screening integrals            ... done (  0.0 sec) Dimension = 219
   => SHARK Basis and OBASIS are compatible. Storing Pre-screening
Shell pair information
Shell pair cut-off parameter TPreSel        ...   2.5e-12
Total number of shell pairs                 ...     24090
Shell pairs after pre-screening             ...     20316
Total number of primitive shell pairs       ...     82574
Primitive shell pairs kept                  ...     46015
          la=0 lb=0:   7046 shell pairs
          la=1 lb=0:   7755 shell pairs
          la=1 lb=1:   2169 shell pairs
          la=2 lb=0:   2063 shell pairs
          la=2 lb=1:   1123 shell pairs
          la=2 lb=2:    160 shell pairs

Checking whether 4 symmetric matrices of dimension 445 fit in memory
:Max Core in MB      =   4096.00
 MB in use           =     27.98
 MB left             =   4068.02
 MB needed           =      3.03
 Data fit in memory  = YES
Calculating RI/J V-Matrix + Cholesky decomp.... done (  0.2 sec)
Calculating Nuclear repulsion               ... done (  0.0 sec) ENN=   1768.087812802493 Eh

Diagonalization of the overlap matrix:
Smallest eigenvalue                        ... 7.308e-04
Time for diagonalization                   ...    0.040 sec
Threshold for overlap eigenvalues          ... 1.000e-07
Number of eigenvalues below threshold      ... 0
Time for construction of square roots      ...    0.021 sec
Total time needed                          ...    0.064 sec

-------------------
DFT GRID GENERATION
-------------------

General Integration Accuracy     IntAcc      ... 4.388
Radial Grid Type                 RadialGrid  ... OptM3 with GC (2021)
Angular Grid (max. ang.)         AngularGrid ... 4 (Lebedev-302)
Angular grid pruning method      GridPruning ... 4 (adaptive)
Weight generation scheme         WeightScheme... mBecke (2022)
Basis function cutoff            BFCut       ... 1.0000e-11
Integration weight cutoff        WCut        ... 1.0000e-14
Partially contracted basis set               ... off
Rotationally invariant grid construction     ... off
Angular grids for H and He will be reduced by one unit

Total number of grid points                  ...   221028
Total number of batches                      ...     3482
Average number of points per batch           ...       63
Average number of grid points per atom       ...     4170

--------------------
COSX GRID GENERATION
--------------------

GRIDX 1
-------
General Integration Accuracy     IntAcc      ... 3.816
Radial Grid Type                 RadialGrid  ... OptM3 with GC (2021)
Angular Grid (max. ang.)         AngularGrid ... 1 (Lebedev-50)
Angular grid pruning method      GridPruning ... 4 (adaptive)
Weight generation scheme         WeightScheme... mBecke (2022)
Basis function cutoff            BFCut       ... 1.0000e-11
Integration weight cutoff        WCut        ... 1.0000e-14
Partially contracted basis set               ... on
Rotationally invariant grid construction     ... off
Angular grids for H and He will be reduced by one unit

Total number of grid points                  ...    28125
Total number of batches                      ...      250
Average number of points per batch           ...      112
Average number of grid points per atom       ...      531
UseSFitting                                  ... on

GRIDX 2
-------
General Integration Accuracy     IntAcc      ... 4.020
Radial Grid Type                 RadialGrid  ... OptM3 with GC (2021)
Angular Grid (max. ang.)         AngularGrid ... 2 (Lebedev-110)
Angular grid pruning method      GridPruning ... 4 (adaptive)
Weight generation scheme         WeightScheme... mBecke (2022)
Basis function cutoff            BFCut       ... 1.0000e-11
Integration weight cutoff        WCut        ... 1.0000e-14
Partially contracted basis set               ... on
Rotationally invariant grid construction     ... off
Angular grids for H and He will be reduced by one unit

Total number of grid points                  ...    57687
Total number of batches                      ...      480
Average number of points per batch           ...      120
Average number of grid points per atom       ...     1088
UseSFitting                                  ... on

GRIDX 3
-------
General Integration Accuracy     IntAcc      ... 4.338
Radial Grid Type                 RadialGrid  ... OptM3 with GC (2021)
Angular Grid (max. ang.)         AngularGrid ... 3 (Lebedev-194)
Angular grid pruning method      GridPruning ... 4 (adaptive)
Weight generation scheme         WeightScheme... mBecke (2022)
Basis function cutoff            BFCut       ... 1.0000e-11
Integration weight cutoff        WCut        ... 1.0000e-14
Partially contracted basis set               ... on
Rotationally invariant grid construction     ... off
Angular grids for H and He will be reduced by one unit

Total number of grid points                  ...   124776
Total number of batches                      ...     1004
Average number of points per batch           ...      124
Average number of grid points per atom       ...     2354
UseSFitting                                  ... on
Grids setup in   4.7 sec
Initializing property integral containers    ... done (  0.0 sec)

SHARK setup successfully completed in   5.3 seconds

Maximum memory used throughout the entire STARTUP-calculation: 68.8 MB


           ************************************************************
           *        Program running with 6 parallel MPI-processes     *
           *              working on a common directory               *
           ************************************************************
-------------------------------------------------------------------------------
                                 ORCA GUESS
                   Start orbitals & Density for SCF / CASSCF
-------------------------------------------------------------------------------

------------
SCF SETTINGS
------------
Hamiltonian:
 Density Functional     Method          .... DFT(GTOs)
 Exchange Functional    Exchange        .... B88
   X-Alpha parameter    XAlpha          ....  0.666667
   Becke's b parameter  XBeta           ....  0.004200
 Correlation Functional Correlation     .... LYP
 LDA part of GGA corr.  LDAOpt          .... VWN-5
 Gradients option       PostSCFGGA      .... off
 Hybrid DFT is turned on
   Fraction HF Exchange ScalHFX         ....  0.200000
   Scaling of DF-GGA-X  ScalDFX         ....  0.720000
   Scaling of DF-GGA-C  ScalDFC         ....  0.810000
   Scaling of DF-LDA-C  ScalLDAC        ....  1.000000
   Perturbative correction              ....  0.000000
   NL short-range parameter             ....  4.800000
 RI-approximation to the Coulomb term is turned on
   Number of AuxJ basis functions       .... 1343
   RIJ-COSX (HFX calculated with COS-X)).... on


General Settings:
 Integral files         IntName         .... orca
 Hartree-Fock type      HFTyp           .... UHF
 Total Charge           Charge          ....    0
 Multiplicity           Mult            ....    2
 Number of Electrons    NEL             ....  153
 Basis Dimension        Dim             ....  445
 Nuclear Repulsion      ENuc            ....   1768.0878128025 Eh

Convergence Acceleration:
 AO-DIIS                CNVDIIS         .... on
   Start iteration      DIISMaxIt       ....    12
   Startup error        DIISStart       ....  0.200000
   # of expansion vecs  DIISMaxEq       ....     5
   Bias factor          DIISBfac        ....   1.050
   Max. coefficient     DIISMaxC        ....  10.000
 MO-DIIS                CNVKDIIS        .... off
 Trust-Rad. Augm. Hess. CNVTRAH         .... auto
   Auto Start mean grad. ratio tolernc. ....  1.125000
   Auto Start start iteration           ....    50
   Auto Start num. interpolation iter.  ....    10
   Max. Number of Micro iterations      ....    24
   Max. Number of Macro iterations      .... Maxiter - #DIIS iter
   Number of Davidson start vectors     ....     2
   Converg. threshold    (grad. norm)   ....   1.000e-05
   Grad. Scal. Fac. for Micro threshold ....   0.100
   Minimum threshold for Micro iter.    ....   1.000e-02
   NR start threshold (gradient norm)   ....   1.000e-04
   Initial trust radius                 ....   0.400
   Minimum AH scaling param. (alpha)    ....   1.000
   Maximum AH scaling param. (alpha)    .... 1000.000
   Quad. conv. algorithm                .... NR
   White noise on init. David. guess    .... on
   Maximum white noise                  ....   0.010
   Pseudo random numbers                .... off
   Inactive MOs                         .... canonical
   Orbital update algorithm             .... Taylor
   Preconditioner                       .... Diag
   Full preconditioner red. dimension   ....   250
 SOSCF                 CNVSOSCF           .... on
   Start iteration     SOSCFMaxIt         ....   150
   Startup grad/error  SOSCFStart         ....  0.003300
   Hessian update      SOSCFHessUp        .... L-BFGS
   Autom. constraints  SOSCFAutoConstrain .... off
 Level Shifting         CNVShift        .... on
   Level shift para.    LevelShift      ....    0.2500
   Turn off err/grad.   ShiftErr        ....    0.0010
 Zerner damping         CNVZerner       .... off
 Static damping         CNVDamp         .... on
   Fraction old density DampFac         ....    0.7000
   Max. Damping (<1)    DampMax         ....    0.9800
   Min. Damping (>=0)   DampMin         ....    0.0000
   Turn off err/grad.   DampErr         ....    0.1000

SCF Procedure:
 Maximum # iterations   MaxIter         ....   125
 SCF integral mode      SCFMode         .... Direct
   Integral package                     .... SHARK and LIBINT hybrid scheme
 Reset frequency        DirectResetFreq ....    20
 Integral Threshold     Thresh          ....  2.500e-11 Eh
 Primitive CutOff       TCut            ....  2.500e-12 Eh

Convergence Tolerance:
 Convergence Check Mode ConvCheckMode   .... Total+1el-Energy
 Convergence forced     ConvForced      .... 0
 Energy Change          TolE            ....  1.000e-08 Eh
 1-El. energy change                    ....  1.000e-05 Eh
 Orbital Gradient       TolG            ....  1.000e-05
 Orbital Rotation angle TolX            ....  1.000e-05
 DIIS Error             TolErr          ....  5.000e-07

------------------------------
INITIAL GUESS: MODEL POTENTIAL
------------------------------
Loading Hartree-Fock densities                     ... done
Calculating cut-offs                               ... done
Initializing the effective Hamiltonian             ... done
Setting up the integral package (SHARK)            ... done
Starting the Coulomb interaction                   ... done (   0.7 sec)
Making the grid                                    ... done (   0.5 sec)
Mapping shells                                     ... done
Starting the XC term evaluation                    ... done (   0.3 sec)
  promolecular density results
     # of electrons  =    152.993387933
     EX              =   -112.641102210
     EC              =     -4.997537926
     EX+EC           =   -117.638640135
Transforming the Hamiltonian                       ... done (   0.0 sec)
Diagonalizing the Hamiltonian                      ... done (   0.0 sec)
Back transforming the eigenvectors                 ... done (   0.0 sec)
Now organizing SCF variables                       ... done
                      ------------------
                      INITIAL GUESS DONE (   1.7 sec)
                      ------------------
             **** ENERGY FILE WAS UPDATED (orca.en.tmp) ****
Finished Guess after   2.0 sec
Maximum memory used throughout the entire GUESS-calculation: 34.8 MB


           ************************************************************
           *        Program running with 6 parallel MPI-processes     *
           *              working on a common directory               *
           ************************************************************

-------------------------------------------------------------------------------------------
                                      ORCA LEAN-SCF
                              memory conserving SCF solver
-------------------------------------------------------------------------------------------

----------------------------------------D-I-I-S--------------------------------------------
Iteration    Energy (Eh)           Delta-E    RMSDP     MaxDP     DIISErr   Damp  Time(sec)
-------------------------------------------------------------------------------------------
               ***  Starting incremental Fock matrix formation  ***
    1    -780.2206134074644979     0.00e+00  2.65e-03  4.02e-02  8.34e-02  0.700  14.4
    2    -780.4878389341015463    -2.67e-01  1.91e-03  2.47e-02  4.43e-02  0.700   7.0
                               ***Turning on AO-DIIS***
    3    -780.5991656241608325    -1.11e-01  8.08e-04  1.18e-02  1.78e-02  0.700   7.6
    4    -780.6633444340473034    -6.42e-02  1.60e-03  2.81e-02  9.07e-03  0.000   7.3
                              *** Initializing SOSCF ***
---------------------------------------S-O-S-C-F--------------------------------------
Iteration    Energy (Eh)           Delta-E    RMSDP     MaxDP     MaxGrad    Time(sec)
--------------------------------------------------------------------------------------
    5    -780.8022522584242324    -1.39e-01  2.65e-04  3.32e-03  2.91e-03     7.6
               *** Restarting incremental Fock matrix formation ***
    6    -780.8031056955169333    -8.53e-04  2.11e-04  2.97e-03  8.59e-04    14.1
    7    -780.8031265065269508    -2.08e-05  8.36e-05  1.27e-03  5.47e-04    10.2
    8    -780.8032026154787673    -7.61e-05  3.11e-05  5.26e-04  1.04e-04     9.9
    9    -780.8032029871528721    -3.72e-07  1.23e-05  2.63e-04  1.88e-04     8.9
   10    -780.8032052322964773    -2.25e-06  8.54e-06  1.85e-04  8.91e-05     7.9
   11    -780.8032052219073194     1.04e-08  4.41e-06  1.07e-04  9.34e-05     7.5
   12    -780.8032054606674137    -2.39e-07  1.99e-06  3.29e-05  1.04e-05     6.5
   13    -780.8032054441537184     1.65e-08  1.05e-06  1.43e-05  9.28e-06     5.9
   14    -780.8032054540344689    -9.88e-09  4.06e-07  8.88e-06  4.93e-06     4.9
                 **** Energy Check signals convergence ****

               *****************************************************
               *                     SUCCESS                       *
               *           SCF CONVERGED AFTER  14 CYCLES          *
               *****************************************************

Recomputing exchange energy using gridx3       ... done (   15.150 sec)
Old exchange energy                            :    -23.057230675 Eh
New exchange energy                            :    -23.057242218 Eh
Exchange energy change after final integration :     -0.000011543 Eh
Total energy after final integration           :   -780.803216994 Eh
             **** ENERGY FILE WAS UPDATED (orca.en.tmp) ****

----------------
TOTAL SCF ENERGY
----------------

Total Energy       :       -780.80321699438355 Eh          -21246.73570 eV

Components:
Nuclear Repulsion  :       1768.08781280249332 Eh           48112.11536 eV
Electronic Energy  :      -2548.89101825414309 Eh          -69358.85074 eV
One Electron Energy:      -4568.02517790393540 Eh         -124302.28450 eV
Two Electron Energy:       2019.13415964979231 Eh           54943.43375 eV

Virial components:
Potential Energy   :      -1552.30080022521270 Eh          -42240.25223 eV
Kinetic Energy     :        771.49758323082915 Eh           20993.51653 eV
Virial Ratio       :          2.01206177953868

DFT components:
N(Alpha)           :       77.000005610006 electrons
N(Beta)            :       76.000020702200 electrons
N(Total)           :      153.000026312207 electrons
E(X)               :      -91.318190019566 Eh       
E(C)               :       -5.879502409613 Eh       
E(XC)              :      -97.197692429178 Eh       

---------------
SCF CONVERGENCE
---------------

  Last Energy change         ...    9.8808e-09  Tolerance :   1.0000e-08
  Last MAX-Density change    ...    8.8779e-06  Tolerance :   1.0000e-07
  Last RMS-Density change    ...    4.0576e-07  Tolerance :   5.0000e-09
  Last DIIS Error            ...    2.9051e-03  Tolerance :   5.0000e-07
  Last Orbital Gradient      ...    4.9346e-06  Tolerance :   1.0000e-05
  Last Orbital Rotation      ...    1.6013e-05  Tolerance :   1.0000e-05


----------------------
UHF SPIN CONTAMINATION
----------------------

Warning: in a DFT calculation there is little theoretical justification to 
         calculate <S**2> as in Hartree-Fock theory. We will do it anyways
         but you should keep in mind that the values have only limited relevance

Expectation value of <S**2>     :     0.754330
Ideal value S*(S+1) for S=0.5   :     0.750000
Deviation                       :     0.004330

----------------
ORBITAL ENERGIES
----------------
                 SPIN UP ORBITALS
  NO   OCC          E(Eh)            E(eV) 
   0   1.0000     -10.185574      -277.1636 
   1   1.0000     -10.180796      -277.0335 
   2   1.0000     -10.180081      -277.0141 
   3   1.0000     -10.179253      -276.9916 
   4   1.0000     -10.179142      -276.9885 
   5   1.0000     -10.178795      -276.9791 
   6   1.0000     -10.177968      -276.9566 
   7   1.0000     -10.177428      -276.9419 
   8   1.0000     -10.176405      -276.9140 
   9   1.0000     -10.174595      -276.8648 
  10   1.0000     -10.173176      -276.8262 
  11   1.0000     -10.172805      -276.8161 
  12   1.0000     -10.170836      -276.7625 
  13   1.0000     -10.170601      -276.7561 
  14   1.0000     -10.170019      -276.7403 
  15   1.0000     -10.169143      -276.7164 
  16   1.0000     -10.168599      -276.7016 
  17   1.0000     -10.166886      -276.6550 
  18   1.0000     -10.166145      -276.6349 
  19   1.0000     -10.165304      -276.6120 
  20   1.0000      -0.839704       -22.8495 
  21   1.0000      -0.811843       -22.0914 
  22   1.0000      -0.801133       -21.8000 
  23   1.0000      -0.769429       -20.9372 
  24   1.0000      -0.757652       -20.6168 
  25   1.0000      -0.749808       -20.4033 
  26   1.0000      -0.709962       -19.3191 
  27   1.0000      -0.704341       -19.1661 
  28   1.0000      -0.673360       -18.3231 
  29   1.0000      -0.670173       -18.2363 
  30   1.0000      -0.665631       -18.1128 
  31   1.0000      -0.663784       -18.0625 
  32   1.0000      -0.628882       -17.1127 
  33   1.0000      -0.614026       -16.7085 
  34   1.0000      -0.575703       -15.6657 
  35   1.0000      -0.557273       -15.1642 
  36   1.0000      -0.540336       -14.7033 
  37   1.0000      -0.509090       -13.8530 
  38   1.0000      -0.501680       -13.6514 
  39   1.0000      -0.495946       -13.4954 
  40   1.0000      -0.478694       -13.0259 
  41   1.0000      -0.466759       -12.7012 
  42   1.0000      -0.460105       -12.5201 
  43   1.0000      -0.450553       -12.2602 
  44   1.0000      -0.443336       -12.0638 
  45   1.0000      -0.436559       -11.8794 
  46   1.0000      -0.427201       -11.6247 
  47   1.0000      -0.423431       -11.5221 
  48   1.0000      -0.420505       -11.4425 
  49   1.0000      -0.406680       -11.0663 
  50   1.0000      -0.402876       -10.9628 
  51   1.0000      -0.400564       -10.8999 
  52   1.0000      -0.393934       -10.7195 
  53   1.0000      -0.390568       -10.6279 
  54   1.0000      -0.389849       -10.6083 
  55   1.0000      -0.380556       -10.3555 
  56   1.0000      -0.376809       -10.2535 
  57   1.0000      -0.373092       -10.1524 
  58   1.0000      -0.368220       -10.0198 
  59   1.0000      -0.364380        -9.9153 
  60   1.0000      -0.360594        -9.8123 
  61   1.0000      -0.356452        -9.6996 
  62   1.0000      -0.352868        -9.6020 
  63   1.0000      -0.343817        -9.3557 
  64   1.0000      -0.342829        -9.3289 
  65   1.0000      -0.339019        -9.2252 
  66   1.0000      -0.331755        -9.0275 
  67   1.0000      -0.325737        -8.8637 
  68   1.0000      -0.316951        -8.6247 
  69   1.0000      -0.313715        -8.5366 
  70   1.0000      -0.307215        -8.3598 
  71   1.0000      -0.300413        -8.1746 
  72   1.0000      -0.290188        -7.8964 
  73   1.0000      -0.282816        -7.6958 
  74   1.0000      -0.229020        -6.2320 
  75   1.0000      -0.225658        -6.1405 
  76   1.0000      -0.156232        -4.2513 
  77   0.0000       0.021046         0.5727 
  78   0.0000       0.023657         0.6437 
  79   0.0000       0.047511         1.2928 
  80   0.0000       0.062251         1.6939 
  81   0.0000       0.065445         1.7808 
  82   0.0000       0.072887         1.9834 
  83   0.0000       0.084831         2.3084 
  84   0.0000       0.093162         2.5351 
  85   0.0000       0.097399         2.6504 
  86   0.0000       0.100920         2.7462 
  87   0.0000       0.103017         2.8032 

                 SPIN DOWN ORBITALS
  NO   OCC          E(Eh)            E(eV) 
   0   1.0000     -10.184342      -277.1300 
   1   1.0000     -10.180790      -277.0334 
   2   1.0000     -10.180086      -277.0142 
   3   1.0000     -10.179349      -276.9942 
   4   1.0000     -10.179040      -276.9858 
   5   1.0000     -10.178788      -276.9789 
   6   1.0000     -10.177967      -276.9566 
   7   1.0000     -10.177430      -276.9420 
   8   1.0000     -10.176394      -276.9138 
   9   1.0000     -10.174581      -276.8644 
  10   1.0000     -10.173843      -276.8443 
  11   1.0000     -10.172183      -276.7992 
  12   1.0000     -10.171775      -276.7881 
  13   1.0000     -10.170543      -276.7546 
  14   1.0000     -10.169129      -276.7161 
  15   1.0000     -10.168582      -276.7012 
  16   1.0000     -10.166862      -276.6544 
  17   1.0000     -10.166201      -276.6364 
  18   1.0000     -10.166123      -276.6343 
  19   1.0000     -10.156051      -276.3602 
  20   1.0000      -0.835595       -22.7377 
  21   1.0000      -0.811145       -22.0724 
  22   1.0000      -0.800608       -21.7856 
  23   1.0000      -0.760103       -20.6834 
  24   1.0000      -0.756341       -20.5811 
  25   1.0000      -0.749533       -20.3958 
  26   1.0000      -0.709347       -19.3023 
  27   1.0000      -0.701075       -19.0772 
  28   1.0000      -0.672919       -18.3111 
  29   1.0000      -0.669448       -18.2166 
  30   1.0000      -0.665123       -18.0989 
  31   1.0000      -0.662803       -18.0358 
  32   1.0000      -0.628430       -17.1004 
  33   1.0000      -0.611025       -16.6268 
  34   1.0000      -0.575538       -15.6612 
  35   1.0000      -0.556073       -15.1315 
  36   1.0000      -0.531133       -14.4529 
  37   1.0000      -0.508862       -13.8468 
  38   1.0000      -0.500978       -13.6323 
  39   1.0000      -0.489350       -13.3159 
  40   1.0000      -0.478195       -13.0124 
  41   1.0000      -0.465516       -12.6673 
  42   1.0000      -0.458021       -12.4634 
  43   1.0000      -0.448568       -12.2061 
  44   1.0000      -0.443142       -12.0585 
  45   1.0000      -0.434843       -11.8327 
  46   1.0000      -0.424351       -11.5472 
  47   1.0000      -0.421086       -11.4583 
  48   1.0000      -0.418699       -11.3934 
  49   1.0000      -0.405525       -11.0349 
  50   1.0000      -0.400578       -10.9003 
  51   1.0000      -0.397667       -10.8211 
  52   1.0000      -0.390498       -10.6260 
  53   1.0000      -0.389252       -10.5921 
  54   1.0000      -0.388115       -10.5611 
  55   1.0000      -0.379486       -10.3263 
  56   1.0000      -0.375706       -10.2235 
  57   1.0000      -0.371403       -10.1064 
  58   1.0000      -0.368098       -10.0165 
  59   1.0000      -0.363479        -9.8908 
  60   1.0000      -0.360010        -9.7964 
  61   1.0000      -0.356213        -9.6931 
  62   1.0000      -0.352586        -9.5944 
  63   1.0000      -0.343134        -9.3372 
  64   1.0000      -0.340779        -9.2731 
  65   1.0000      -0.336045        -9.1442 
  66   1.0000      -0.330836        -9.0025 
  67   1.0000      -0.324854        -8.8397 
  68   1.0000      -0.315774        -8.5926 
  69   1.0000      -0.311812        -8.4848 
  70   1.0000      -0.305214        -8.3053 
  71   1.0000      -0.298367        -8.1190 
  72   1.0000      -0.286384        -7.7929 
  73   1.0000      -0.280922        -7.6443 
  74   1.0000      -0.228912        -6.2290 
  75   1.0000      -0.224605        -6.1118 
  76   0.0000      -0.024077        -0.6552 
  77   0.0000       0.021367         0.5814 
  78   0.0000       0.024042         0.6542 
  79   0.0000       0.047869         1.3026 
  80   0.0000       0.063028         1.7151 
  81   0.0000       0.065752         1.7892 
  82   0.0000       0.073586         2.0024 
  83   0.0000       0.085001         2.3130 
  84   0.0000       0.093546         2.5455 
  85   0.0000       0.098752         2.6872 
  86   0.0000       0.101118         2.7516 
*Only the first 10 virtual orbitals were printed.

                    ********************************
                    * MULLIKEN POPULATION ANALYSIS *
                    ********************************

--------------------------------------------
MULLIKEN ATOMIC CHARGES AND SPIN POPULATIONS
--------------------------------------------
   0 C :   -0.300584    0.990522
   1 C :    0.049066   -0.084261
   2 C :   -0.246347    0.045011
   3 C :   -0.037466   -0.004817
   4 C :    0.063228    0.033513
   5 C :    0.152006   -0.084393
   6 H :   -0.022310    0.005257
   7 H :   -0.014497    0.000304
   8 H :   -0.013554    0.043304
   9 H :   -0.025555    0.002103
  10 C :    0.110413   -0.096411
  11 H :    0.006809    0.037055
  12 H :   -0.004805    0.003172
  13 H :    0.007444    0.063268
  14 C :    0.177816    0.000843
  15 C :    0.082474    0.003117
  16 C :   -0.090106   -0.003052
  17 H :   -0.026720   -0.000040
  18 C :    0.118840    0.001757
  19 C :   -0.189069    0.001739
  20 H :   -0.015875   -0.000174
  21 C :    0.095836    0.001560
  22 H :    0.001462    0.000053
  23 H :   -0.005491    0.002875
  24 C :    0.092986    0.002810
  25 H :   -0.002427    0.000614
  26 H :    0.007221   -0.001019
  27 H :   -0.007207   -0.000177
  28 H :   -0.011703   -0.000492
  29 H :   -0.027725   -0.001199
  30 H :   -0.010535   -0.000934
  31 C :   -0.059709    0.000436
  32 H :   -0.025678   -0.000094
  33 C :    0.096663    0.000180
  34 H :   -0.001215    0.000080
  35 H :   -0.011373    0.000007
  36 C :    0.073317   -0.000480
  37 H :   -0.012842   -0.000012
  38 H :   -0.003764    0.000254
  39 C :   -0.157707    0.006828
  40 H :    0.016635    0.027019
  41 H :   -0.030441    0.001041
  42 C :    0.093712    0.000050
  43 H :    0.007116   -0.000020
  44 H :    0.017712    0.000071
  45 H :    0.003230    0.000001
  46 C :    0.100043   -0.000473
  47 H :    0.003435    0.000076
  48 H :    0.016011    0.000482
  49 H :    0.006494    0.000022
  50 H :   -0.010813   -0.000109
  51 H :   -0.029402    0.002309
  52 H :   -0.005052    0.000424
Sum of atomic charges         :    0.0000000
Sum of atomic spin populations:    1.0000000

-----------------------------------------------------
MULLIKEN REDUCED ORBITAL CHARGES AND SPIN POPULATIONS
-----------------------------------------------------
CHARGE
  0 C s       :     3.219652  s :     3.219652
      pz      :     1.019089  p :     3.043337
      px      :     1.030939
      py      :     0.993310
      dz2     :     0.007360  d :     0.037595
      dxz     :     0.005931
      dyz     :     0.009251
      dx2y2   :     0.007070
      dxy     :     0.007983

  1 C s       :     3.003551  s :     3.003551
      pz      :     0.961322  p :     2.905168
      px      :     1.007802
      py      :     0.936043
      dz2     :     0.008644  d :     0.042215
      dxz     :     0.008847
      dyz     :     0.009054
      dx2y2   :     0.007022
      dxy     :     0.008649

  2 C s       :     3.199731  s :     3.199731
      pz      :     0.990348  p :     2.997119
      px      :     1.011265
      py      :     0.995506
      dz2     :     0.008174  d :     0.049497
      dxz     :     0.011417
      dyz     :     0.010954
      dx2y2   :     0.010467
      dxy     :     0.008485

  3 C s       :     3.067052  s :     3.067052
      pz      :     0.977645  p :     2.928490
      px      :     0.982127
      py      :     0.968717
      dz2     :     0.007185  d :     0.041925
      dxz     :     0.009338
      dyz     :     0.009006
      dx2y2   :     0.006741
      dxy     :     0.009655

  4 C s       :     2.976838  s :     2.976838
      pz      :     0.967188  p :     2.924085
      px      :     1.003667
      py      :     0.953229
      dz2     :     0.007024  d :     0.035849
      dxz     :     0.006596
      dyz     :     0.009492
      dx2y2   :     0.009242
      dxy     :     0.003494

  5 C s       :     2.910760  s :     2.910760
      pz      :     0.975357  p :     2.899792
      px      :     0.960303
      py      :     0.964132
      dz2     :     0.004661  d :     0.037442
      dxz     :     0.009107
      dyz     :     0.008898
      dx2y2   :     0.007919
      dxy     :     0.006857

  6 H s       :     1.000324  s :     1.000324
      pz      :     0.006248  p :     0.021987
      px      :     0.004554
      py      :     0.011185

  7 H s       :     0.991954  s :     0.991954
      pz      :     0.004570  p :     0.022543
      px      :     0.012843
      py      :     0.005130

  8 H s       :     0.990281  s :     0.990281
      pz      :     0.006461  p :     0.023273
      px      :     0.011449
      py      :     0.005363

  9 H s       :     1.003603  s :     1.003603
      pz      :     0.009483  p :     0.021953
      px      :     0.008295
      py      :     0.004175

 10 C s       :     2.908009  s :     2.908009
      pz      :     0.976346  p :     2.951346
      px      :     0.987000
      py      :     0.988000
      dz2     :     0.005685  d :     0.030232
      dxz     :     0.007372
      dyz     :     0.003205
      dx2y2   :     0.005046
      dxy     :     0.008925

 11 H s       :     0.969777  s :     0.969777
      pz      :     0.005276  p :     0.023414
      px      :     0.008094
      py      :     0.010044

 12 H s       :     0.981817  s :     0.981817
      pz      :     0.012118  p :     0.022988
      px      :     0.006592
      py      :     0.004278

 13 H s       :     0.969149  s :     0.969149
      pz      :     0.008757  p :     0.023407
      px      :     0.009621
      py      :     0.005030

 14 C s       :     2.888308  s :     2.888308
      pz      :     0.956832  p :     2.897863
      px      :     0.951340
      py      :     0.989692
      dz2     :     0.007137  d :     0.036012
      dxz     :     0.008218
      dyz     :     0.005014
      dx2y2   :     0.007277
      dxy     :     0.008365

 15 C s       :     2.961972  s :     2.961972
      pz      :     0.989511  p :     2.919742
      px      :     0.953037
      py      :     0.977194
      dz2     :     0.009519  d :     0.035811
      dxz     :     0.005179
      dyz     :     0.004956
      dx2y2   :     0.005372
      dxy     :     0.010786

 16 C s       :     3.170651  s :     3.170651
      pz      :     0.900967  p :     2.884656
      px      :     0.968488
      py      :     1.015201
      dz2     :     0.009408  d :     0.034799
      dxz     :     0.009272
      dyz     :     0.001964
      dx2y2   :     0.006055
      dxy     :     0.008100

 17 H s       :     1.003637  s :     1.003637
      pz      :     0.012534  p :     0.023083
      px      :     0.005284
      py      :     0.005265

 18 C s       :     2.945763  s :     2.945763
      pz      :     0.971567  p :     2.899502
      px      :     0.952491
      py      :     0.975445
      dz2     :     0.008745  d :     0.035895
      dxz     :     0.005923
      dyz     :     0.004639
      dx2y2   :     0.008613
      dxy     :     0.007976

 19 C s       :     3.133216  s :     3.133216
      pz      :     1.014615  p :     3.012676
      px      :     0.998318
      py      :     0.999743
      dz2     :     0.011408  d :     0.043177
      dxz     :     0.010697
      dyz     :     0.008225
      dx2y2   :     0.006548
      dxy     :     0.006298

 20 H s       :     0.993801  s :     0.993801
      pz      :     0.005949  p :     0.022073
      px      :     0.004179
      py      :     0.011945

 21 C s       :     2.945538  s :     2.945538
      pz      :     0.968982  p :     2.930098
      px      :     0.990072
      py      :     0.971044
      dz2     :     0.004357  d :     0.028528
      dxz     :     0.004859
      dyz     :     0.009276
      dx2y2   :     0.007599
      dxy     :     0.002438

 22 H s       :     0.975119  s :     0.975119
      pz      :     0.008045  p :     0.023419
      px      :     0.004843
      py      :     0.010531

 23 H s       :     0.982437  s :     0.982437
      pz      :     0.006793  p :     0.023053
      px      :     0.005633
      py      :     0.010627

 24 C s       :     2.965437  s :     2.965437
      pz      :     0.978335  p :     2.913124
      px      :     0.965476
      py      :     0.969314
      dz2     :     0.002236  d :     0.028453
      dxz     :     0.008447
      dyz     :     0.006862
      dx2y2   :     0.006323
      dxy     :     0.004585

 25 H s       :     0.979299  s :     0.979299
      pz      :     0.007221  p :     0.023128
      px      :     0.004184
      py      :     0.011722

 26 H s       :     0.969139  s :     0.969139
      pz      :     0.010355  p :     0.023640
      px      :     0.007701
      py      :     0.005583

 27 H s       :     0.984198  s :     0.984198
      pz      :     0.008540  p :     0.023009
      px      :     0.006124
      py      :     0.008345

 28 H s       :     0.989416  s :     0.989416
      pz      :     0.004938  p :     0.022287
      px      :     0.009309
      py      :     0.008040

 29 H s       :     1.004554  s :     1.004554
      pz      :     0.012943  p :     0.023172
      px      :     0.005390
      py      :     0.004839

 30 H s       :     0.988025  s :     0.988025
      pz      :     0.013120  p :     0.022510
      px      :     0.004575
      py      :     0.004815

 31 C s       :     3.164510  s :     3.164510
      pz      :     0.949960  p :     2.860789
      px      :     0.938912
      py      :     0.971918
      dz2     :     0.007540  d :     0.034410
      dxz     :     0.009661
      dyz     :     0.005867
      dx2y2   :     0.005779
      dxy     :     0.005563

 32 H s       :     1.002933  s :     1.002933
      pz      :     0.011296  p :     0.022745
      px      :     0.007229
      py      :     0.004220

 33 C s       :     2.949043  s :     2.949043
      pz      :     0.971939  p :     2.917569
      px      :     0.991731
      py      :     0.953899
      dz2     :     0.005747  d :     0.036725
      dxz     :     0.010150
      dyz     :     0.004060
      dx2y2   :     0.007709
      dxy     :     0.009058

 34 H s       :     0.978877  s :     0.978877
      pz      :     0.009594  p :     0.022339
      px      :     0.008194
      py      :     0.004551

 35 H s       :     0.988543  s :     0.988543
      pz      :     0.011643  p :     0.022830
      px      :     0.007107
      py      :     0.004081

 36 C s       :     2.982652  s :     2.982652
      pz      :     0.979569  p :     2.907896
      px      :     0.965860
      py      :     0.962467
      dz2     :     0.008216  d :     0.036135
      dxz     :     0.007787
      dyz     :     0.004352
      dx2y2   :     0.005376
      dxy     :     0.010403

 37 H s       :     0.990709  s :     0.990709
      pz      :     0.011923  p :     0.022134
      px      :     0.006130
      py      :     0.004081

 38 H s       :     0.981641  s :     0.981641
      pz      :     0.004422  p :     0.022123
      px      :     0.009798
      py      :     0.007903

 39 C s       :     3.115883  s :     3.115883
      pz      :     1.033948  p :     2.998830
      px      :     0.983586
      py      :     0.981296
      dz2     :     0.010042  d :     0.042994
      dxz     :     0.013566
      dyz     :     0.005290
      dx2y2   :     0.005901
      dxy     :     0.008195

 40 H s       :     0.959508  s :     0.959508
      pz      :     0.004863  p :     0.023857
      px      :     0.012406
      py      :     0.006588

 41 H s       :     1.006939  s :     1.006939
      pz      :     0.013689  p :     0.023502
      px      :     0.004571
      py      :     0.005242

 42 C s       :     2.910608  s :     2.910608
      pz      :     0.997328  p :     2.966977
      px      :     0.983557
      py      :     0.986092
      dz2     :     0.006895  d :     0.028702
      dxz     :     0.007355
      dyz     :     0.004426
      dx2y2   :     0.004396
      dxy     :     0.005630

 43 H s       :     0.969533  s :     0.969533
      pz      :     0.005026  p :     0.023351
      px      :     0.005543
      py      :     0.012782

 44 H s       :     0.958534  s :     0.958534
      pz      :     0.009049  p :     0.023754
      px      :     0.008138
      py      :     0.006567

 45 H s       :     0.973202  s :     0.973202
      pz      :     0.004409  p :     0.023568
      px      :     0.011291
      py      :     0.007867

 46 C s       :     2.904122  s :     2.904122
      pz      :     0.988789  p :     2.967173
      px      :     0.981883
      py      :     0.996501
      dz2     :     0.006427  d :     0.028661
      dxz     :     0.005952
      dyz     :     0.006537
      dx2y2   :     0.003783
      dxy     :     0.005962

 47 H s       :     0.973327  s :     0.973327
      pz      :     0.004100  p :     0.023238
      px      :     0.011466
      py      :     0.007673

 48 H s       :     0.960243  s :     0.960243
      pz      :     0.006132  p :     0.023746
      px      :     0.005735
      py      :     0.011878

 49 H s       :     0.969871  s :     0.969871
      pz      :     0.007463  p :     0.023635
      px      :     0.008780
      py      :     0.007391

 50 H s       :     0.988136  s :     0.988136
      pz      :     0.006075  p :     0.022677
      px      :     0.005256
      py      :     0.011346

 51 H s       :     1.008324  s :     1.008324
      pz      :     0.007099  p :     0.021078
      px      :     0.007487
      py      :     0.006492

 52 H s       :     0.981589  s :     0.981589
      pz      :     0.004760  p :     0.023462
      px      :     0.013208
      py      :     0.005495


SPIN
  0 C s       :     0.116269  s :     0.116269
      pz      :     0.268341  p :     0.876031
      px      :     0.520591
      py      :     0.087098
      dz2     :     0.000012  d :    -0.001778
      dxz     :    -0.001096
      dyz     :     0.000046
      dx2y2   :    -0.000474
      dxy     :    -0.000267

  1 C s       :    -0.024391  s :    -0.024391
      pz      :    -0.033168  p :    -0.065852
      px      :    -0.024809
      py      :    -0.007875
      dz2     :     0.002418  d :     0.005982
      dxz     :     0.000901
      dyz     :     0.001070
      dx2y2   :     0.001214
      dxy     :     0.000379

  2 C s       :     0.005795  s :     0.005795
      pz      :     0.008057  p :     0.039074
      px      :     0.006552
      py      :     0.024466
      dz2     :     0.000072  d :     0.000142
      dxz     :     0.000020
      dyz     :    -0.000032
      dx2y2   :    -0.000051
      dxy     :     0.000133

  3 C s       :    -0.000950  s :    -0.000950
      pz      :    -0.001778  p :    -0.004066
      px      :    -0.000854
      py      :    -0.001435
      dz2     :     0.000005  d :     0.000200
      dxz     :     0.000028
      dyz     :     0.000118
      dx2y2   :     0.000027
      dxy     :     0.000022

  4 C s       :     0.002846  s :     0.002846
      pz      :     0.015099  p :     0.030530
      px      :     0.003923
      py      :     0.011508
      dz2     :    -0.000001  d :     0.000137
      dxz     :    -0.000031
      dyz     :     0.000246
      dx2y2   :    -0.000100
      dxy     :     0.000023

  5 C s       :    -0.025353  s :    -0.025353
      pz      :    -0.018625  p :    -0.065609
      px      :    -0.016817
      py      :    -0.030167
      dz2     :     0.000593  d :     0.006570
      dxz     :     0.000632
      dyz     :     0.001617
      dx2y2   :     0.000319
      dxy     :     0.003409

  6 H s       :     0.005170  s :     0.005170
      pz      :     0.000052  p :     0.000087
      px      :     0.000008
      py      :     0.000027

  7 H s       :     0.000248  s :     0.000248
      pz      :     0.000025  p :     0.000055
      px      :     0.000037
      py      :    -0.000007

  8 H s       :     0.043464  s :     0.043464
      pz      :    -0.000038  p :    -0.000161
      px      :     0.000001
      py      :    -0.000123

[...]

SCF preparation             ....       0.445 sec  (  0.3%)
Fock matrix formation       ....     131.329 sec  ( 94.2%)
  Startup                   ....       0.042 sec  (  0.0% of F)
  Split-RI-J                ....      15.662 sec  ( 11.9% of F)
  Chain of spheres X        ....      96.411 sec  ( 73.4% of F)
  XC integration            ....      22.153 sec  ( 16.9% of F)
    XC Preparation          ....       0.000 sec  (  0.0% of XC)
    Basis function eval.    ....       4.265 sec  ( 19.3% of XC)
    Density eval.           ....       7.568 sec  ( 34.2% of XC)
    XC-Functional eval.     ....       0.483 sec  (  2.2% of XC)
    XC-Potential eval.      ....       6.572 sec  ( 29.7% of XC)
Diagonalization             ....       0.000 sec  (  0.0%)
Density matrix formation    ....       0.432 sec  (  0.3%)
Total Energy calculation    ....       0.143 sec  (  0.1%)
Population analysis         ....       0.110 sec  (  0.1%)
Orbital Transformation      ....       0.291 sec  (  0.2%)
Orbital Orthonormalization  ....       0.000 sec  (  0.0%)
DIIS solution               ....       1.184 sec  (  0.8%)
SOSCF solution              ....       1.522 sec  (  1.1%)
Finished LeanSCF after 139.5 sec

Maximum memory used throughout the entire LEANSCF-calculation: 70.7 MB


-------------------------------------------------------------------------------
                          DFT DISPERSION CORRECTION                            
                                                                               
                              DFTD3 V3.1  Rev 1                                
                          USING Becke-Johnson damping                          
-------------------------------------------------------------------------------
The B3LYP functional is recognized
Active option DFTDOPT                   ...         4   

molecular C6(AA) [au] = 21628.881603 


            DFT-D V3
 parameters
 s6 scaling factor         :     1.0000 
 a1 scaling factor         :     0.3981 
 s8 scaling factor         :     1.9889 
 a2 scaling factor         :     4.4211 
 ad hoc parameters k1-k3   :    16.0000     1.3333    -4.0000 

 Edisp/kcal,au: -76.183944718687  -0.121406830878 
 E6   /kcal   : -37.669872497 
 E8   /kcal   : -38.514072222 
 % E8         :  50.554053566 

-------------------------   ----------------
Dispersion correction           -0.121406831
-------------------------   ----------------


-------------------------   --------------------
FINAL SINGLE POINT ENERGY      -780.924623825262
-------------------------   --------------------



           ************************************************************
           *        Program running with 6 parallel MPI-processes     *
           *              working on a common directory               *
           ************************************************************
------------------------------------------------------------------------------
                         ORCA SCF GRADIENT CALCULATION
------------------------------------------------------------------------------

Nuc. rep. gradient        (SHARK) ... done (  0.0 sec)
HCore & Overlap gradient  (SHARK) ... done (  0.6 sec)
Split-RIJ-J gradient      (SHARK) ... done (  2.0 sec)
done ( 27.2 sec)
XC gradient                       ... done ( 10.3 sec)
Dispersion correction             ... done (  0.0 sec)

-------------------
DISPERSION GRADIENT
-------------------

   1   C   :   -0.000727940    0.000514035   -0.000914836
   2   C   :   -0.000447415    0.000607909    0.000095604
   3   C   :   -0.000604233   -0.000066393    0.000774640
   4   C   :   -0.000579707   -0.000822679    0.000112222
   5   C   :   -0.000755955   -0.000570320   -0.000614908
   6   C   :   -0.000544352   -0.000118803   -0.001113059
   7   H   :   -0.000337114   -0.000326510   -0.000274034
   8   H   :   -0.000478641   -0.000292239   -0.000207959
   9   H   :   -0.000147529   -0.000069964   -0.000636918
  10   H   :   -0.000166660   -0.000053001   -0.000428559
  11   C   :   -0.000616134    0.000814180   -0.000725642
  12   H   :   -0.000245837    0.000370497   -0.000279706
  13   H   :   -0.000194762    0.000256588   -0.000250809
  14   H   :   -0.000361575    0.000422126   -0.000215022
  15   C   :   -0.000088989   -0.001227117    0.000013993
  16   C   :   -0.000034660    0.001015161    0.000275300
  17   C   :    0.000410367   -0.001402300   -0.000512067
  18   H   :   -0.000027441   -0.000510837    0.000186292
  19   C   :    0.000341422    0.000931000   -0.000030782
  20   C   :    0.000675167    0.001145699    0.000015646
  21   H   :    0.000037610    0.000451219    0.000021596
  22   C   :   -0.000293667   -0.000133219    0.001319983
  23   H   :   -0.000008274   -0.000006137    0.000582528
  24   H   :   -0.000027333   -0.000136232    0.000550557
  25   C   :   -0.000967399    0.000056462    0.000862571
  26   H   :   -0.000437039    0.000166790    0.000416429
  27   H   :   -0.000606111    0.000074387    0.000282992
  28   H   :   -0.000424850    0.000021580    0.000328955
  29   H   :   -0.000077798    0.000532959    0.000174031
  30   H   :   -0.000034996    0.000376318    0.000389508
  31   H   :    0.000161756    0.000459095   -0.000197181
  32   C   :    0.000954848    0.000702287   -0.000784648
  33   H   :    0.000303255    0.000305206   -0.000445591
  34   C   :    0.000807418    0.000100357   -0.000589625
  35   H   :    0.000316738    0.000055982   -0.000240595
  36   H   :    0.000473537    0.000069320   -0.000083349
  37   C   :    0.000569517   -0.000401223   -0.000563115
  38   H   :    0.000191761   -0.000194329   -0.000382166
  39   H   :    0.000297053   -0.000210186   -0.000226246
  40   C   :    0.000813655   -0.001127804   -0.000245945
  41   H   :   -0.000087040    0.000181675   -0.000111057
  42   H   :    0.000163032   -0.000425909   -0.000399968
  43   C   :    0.000725259    0.000673822    0.000584891
  44   H   :    0.000257714    0.000212110    0.000259370
  45   H   :    0.000354141    0.000263775    0.000478963
  46   H   :    0.000328156    0.000229173    0.000318260
  47   C   :    0.000644963   -0.000891562    0.000541836
  48   H   :    0.000235030   -0.000283866    0.000262399
  49   H   :    0.000363523   -0.000350690    0.000468710
  50   H   :    0.000294469   -0.000318009    0.000312004
  51   H   :   -0.000068712   -0.000506633   -0.000024760
  52   H   :   -0.000311408   -0.000429206    0.000152526
  53   H   :   -0.000016819   -0.000134544    0.000716740

Difference to translation invariance:
           :   -0.0000000000   -0.0000000000    0.0000000000

Difference to rotation invariance:
           :   -0.0000000000   -0.0000000000    0.0000000000

Norm of the Dispersion gradient    ...    0.0061946047
RMS gradient                       ...    0.0004912641
MAX gradient                       ...    0.0014022999

------------------
CARTESIAN GRADIENT
------------------

   1   C   :   -0.000169776    0.000038522   -0.000048643
   2   C   :    0.000108523   -0.000053989    0.000253975
   3   C   :    0.000136549    0.000035755   -0.000143495
   4   C   :    0.000097572   -0.000029634    0.000097367
   5   C   :   -0.000129178   -0.000050640   -0.000079615
   6   C   :   -0.000114799   -0.000062063   -0.000087625
   7   H   :   -0.000003019    0.000049610   -0.000019136
   8   H   :   -0.000015526    0.000041825   -0.000009288
   9   H   :    0.000071322    0.000053376    0.000073047
  10   H   :   -0.000004047    0.000060134    0.000022964
  11   C   :    0.000134085   -0.000073357    0.000068860
  12   H   :    0.000098399   -0.000045647    0.000055066
  13   H   :    0.000020878   -0.000029601    0.000007802
  14   H   :   -0.000016162    0.000010834   -0.000063123
  15   C   :    0.000143644   -0.000014643    0.000067739
  16   C   :   -0.000060880   -0.000156025   -0.000013499
  17   C   :   -0.000072535    0.000009319    0.000203739
  18   H   :   -0.000051718   -0.000028536    0.000029453
  19   C   :    0.000095645    0.000070508   -0.000003825
  20   C   :    0.000046823    0.000109099    0.000022108
  21   H   :   -0.000078500   -0.000015467    0.000016245
  22   C   :    0.000072762    0.000216484   -0.000012934
  23   H   :   -0.000020670   -0.000026046    0.000000006
  24   H   :    0.000031213   -0.000051909    0.000015942
  25   C   :   -0.000029965   -0.000107972   -0.000120133
  26   H   :    0.000064822   -0.000019160   -0.000013900
  27   H   :    0.000012828    0.000003962   -0.000062757
  28   H   :   -0.000011324    0.000055158    0.000012395
  29   H   :   -0.000093153    0.000038491    0.000064823
  30   H   :    0.000007909   -0.000047713    0.000054987
  31   H   :   -0.000093790    0.000004248   -0.000014218
  32   C   :    0.000005323    0.000073973   -0.000089866
  33   H   :   -0.000053972   -0.000117987    0.000023534
  34   C   :    0.000048511   -0.000057096   -0.000085232
  35   H   :   -0.000021369    0.000004344    0.000054134
  36   H   :   -0.000067744    0.000063964   -0.000064195
  37   C   :    0.000048192   -0.000020297    0.000018099
  38   H   :    0.000071097    0.000084180    0.000003575
  39   H   :   -0.000011208   -0.000014835    0.000036853
  40   C   :   -0.000148958    0.000078497    0.000007387
  41   H   :    0.000005878   -0.000061126   -0.000199467
  42   H   :    0.000196294    0.000135962   -0.000045772
  43   C   :    0.000145957   -0.000124684    0.000034486
  44   H   :    0.000007161   -0.000024163    0.000004523
  45   H   :   -0.000115951    0.000037388   -0.000065521
  46   H   :   -0.000104478   -0.000074956   -0.000149010
  47   C   :    0.000119736    0.000087936    0.000073242
  48   H   :   -0.000016399   -0.000074536    0.000013077
  49   H   :   -0.000088604   -0.000142582    0.000100125
  50   H   :   -0.000071781    0.000038388   -0.000082984
  51   H   :   -0.000109740    0.000003838    0.000002972
  52   H   :   -0.000026996   -0.000029899   -0.000019086
  53   H   :    0.000011122    0.000148773    0.000054798

Difference to translation invariance:
           :    0.0000000000    0.0000000000   -0.0000000000

Difference to rotation invariance:
           :   -0.0003814771   -0.0010918687   -0.0002608087

Norm of the Cartesian gradient     ...    0.0009940672
RMS gradient                       ...    0.0000788347
MAX gradient                       ...    0.0002539754

-------
TIMINGS
-------

Total SCF gradient time     ....       40.153 sec

Densities                   ....       0.004 sec  (  0.0%)
One electron gradient       ....       0.592 sec  (  1.5%)
RI-J Coulomb gradient       ....       2.013 sec  (  5.0%)
COSX gradient               ....      27.195 sec  ( 67.7%)
XC gradient                 ....      10.321 sec  ( 25.7%)

Maximum memory used throughout the entire SCFGRAD-calculation: 86.3 MB


           ************************************************************
           *        Program running with 6 parallel MPI-processes     *
           *              working on a common directory               *
           ************************************************************

------------------------------------------------------------------------------
                              ORCA PROPERTY CALCULATIONS
------------------------------------------------------------------------------

GBWName                                 ... orca.gbw
Number of atoms                         ...     53
Number of basis functions               ...    445
Max core memory                         ...   4096 MB

Electric properties:
Dipole moment                           ... YES
Quadrupole moment                       ...  NO
Static polarizability (Dipole/Dipole)   ...  NO
Static polarizability (Dipole/Quad.)    ...  NO
Static polarizability (Quad./Quad.)     ...  NO
Static polarizability (Velocity)        ...  NO
Static hyperpolarizability              ...  NO

Atomic electric properties:
Dipole moment                           ...  NO
Quadrupole moment                       ...  NO
Static polarizability                   ...  NO

Choice of electric origin               ... Center of mass
Position of electric origin             ...     0.029124    -0.013632    -0.051677

General magnetic properties:
Magnetizability                         ...  NO

EPR properties:
g-Tensor (aka g-matrix)                 ...  NO
Zero-Field splitting spin-orbit         ...  NO
Zero-field splitting spin-spin          ...  NO
Hyperfine couplings                     ...  NO (   0 nuclei)
Quadrupole couplings                    ...  NO (   0 nuclei)
Contact density                         ...  NO (   0 nuclei)

NMR properties:
Chemical shifts                         ...  NO (   0 nuclei)
Spin-rotation constants                 ...  NO (   0 nuclei)
Spin-spin couplings                     ...  NO (   0 nuclei,    0 pairs)

Choice of magnetic origin               ... GIAO
Position of magnetic origin             ...     0.000000     0.000000     0.000000

Properties with geometric perturbations:
SCF Hessian                             ...  NO
IR spectrum                             ...  NO
VCD spectrum                            ...  NO
X-ray spectroscopy properties:
SCF XES/XAS/RIXS spectra                ...  NO

SCF SOC stabilization energy            ...  NO
Diagonal Born-Oppenheimer correction    ...  NO

-------------
DIPOLE MOMENT
-------------

Method             : SCF
Type of density    : Electron Density
Multiplicity       :   2
Irrep              :   0
Energy             :  -780.8032169943835470 Eh
Basis              : AO
                                X                 Y                 Z
Electronic contribution:      2.056455754      -1.484442490      -5.152498268
Nuclear contribution   :     -1.976479547       1.429694421       5.337571166
                        -----------------------------------------
Total Dipole Moment    :      0.079976207      -0.054748069       0.185072899
                        -----------------------------------------
Magnitude (a.u.)       :      0.208915108
Magnitude (Debye)      :      0.531020005



--------------------
Rotational spectrum 
--------------------
 
Rotational constants in cm-1:             0.014711             0.010495             0.008661 
Rotational constants in MHz :           441.016637           314.621974           259.636389 

Dipole components along the rotational axes: 
x,y,z [a.u.] :     0.080633    -0.050346     0.186035 
x,y,z [Debye]:     0.204952    -0.127970     0.472865 

 

Dipole moment calculation done in   0.0 sec 

Maximum memory used throughout the entire PROP-calculation: 36.8 MB

--------------------------------
SUGGESTED CITATIONS FOR THIS RUN
--------------------------------

Below you find a list of papers that are relevant to this ORCA run
We neither can nor want to force you to cite these papers, but we appreciate if you do
You receive ORCA, which is the product of decades of hard work by many enthusiastic individuals, for free
The only thing we kindly ask in return is that you cite our papers,
We deeply appreciate it, if you show your appreciation for ORCA by not just citing the generic ORCA reference.

Please note that relegating all ORCA citations to the supporting information does *not* help us.
SI sections are not indexed - citations you put there will not count into any citation statistics
But we need these citations in order to attract the funding resources that allow us to do what we are doing

Therefore, if you are a happy ORCA user, please consider citing a few of the papers listed below in the main body of your paper

In addition to the list printed below, the program has created the file orca.bibtex that contains the list in bibtex format
You can import this file easily into all common literature databanks and citation aid programs


List of essential papers. We consider these as the minimum necessary citations

  1. Neese, F.
     Software update: the ORCA program system, version 6.0
     WIRES Comput. Molec. Sci. 2025 15(1), e70019
     doi.org/10.1002/wcms.7019

List of papers to cite with high priority. The work reported in these papers was absolutely
necessary for this run to complete.
Our perspective: the developers of density functionals and basis sets usually get cited in chemistry papers
Good! But without the algorithms to do something with them, the functionals or basis sets would not do anything.
Hence, in our opinion, the algorithm design and method developments papers are equally worthy of getting cited

  1. Neese, F.
     An improvement of the resolution of the identity approximation for the formation of the Coulomb matrix
     J. Comp. Chem. 2003 24(14), 1740-1747
     doi.org/10.1002/jcc.10318
  2. Neese, F.; Wennmohs, F.; Hansen, A.; Becker, U.
     Efficient, approximate and parallel Hartree-Fock and hybrid DFT calculations. A 'chain-of-spheres' algorithm for the Hartree-Fock exchange
     Chem. Phys. 2009 356(1-3), 98-109
     doi.org/10.1016/j.chemphys.2008.10.036
  3. Grimme, S.; Antony, J.; Ehrlich, S.; Krieg, H.
     A consistent and accurate ab initio parametrization of density functional dispersion correction (DFT-D) for the 94 elements H-Pu
     J. Chem. Phys. 2010 132 , 154104
     doi.org/10.1063/1.3382344
  4. Grimme, S.; Ehrlich, S.; Goerigk, L.
     Effect of the damping function in dispersion corrected density functional theory
     J. Comput. Chem. 2011 32(7), 1456-1465
     doi.org/10.1002/jcc.21759
  5. Helmich-Paris, B.; de Souza, B.; Neese, F.; Izsák, R.
     An improved chain of spheres for exchange algorithm
     J. Chem. Phys. 2021 155(10), 104109
     doi.org/10.1063/5.0058766
  6. Neese, F.
     The SHARK Integral Generation and Digestion System
     J. Comp. Chem. 2022 44(3), 381
     doi.org/10.1002/jcc.26942

List of suggested additional citations. These are papers that are important in the 'surrounding' of 
of this run, or papers that preceded the highly important papers. If you like your results we are grateful for a citation.

  1. Izsak, R.; Neese, F.
     An overlap fitted chain of spheres exchange method
     J. Chem. Phys. 2011 135 , 144105
     doi.org/10.1063/1.3646921
  2. Izsak, R.; Hansen, A.; Neese, F.
     The resolution of identity and chain of spheres approximations for the LPNO-CCSD singles Fock term
     Molec. Phys. 2012 110 , 2413-2417
     doi.org/10.1080/00268976.2012.687466
  3. Neese, F.
     The ORCA program system
     WIRES Comput. Molec. Sci. 2012 2(1), 73-78
     doi.org/10.1002/wcms.81
  4. Izsak, R.; Neese, F.; Klopper, W.
     Robust fitting techniques in the chain of spheres approximation to the Fock exchange: The role of the complementary space
     J. Chem. Phys. 2013 139 , 
     doi.org/10.1063/1.4819264
  5. Neese, F.
     Software update: the ORCA program system, version 4.0
     WIRES Comput. Molec. Sci. 2018 8(1), 1-6
     doi.org/10.1002/wcms.1327
  6. Neese, F.; Wennmohs, F.; Becker, U.; Riplinger, C.
     The ORCA quantum chemistry program package
     J. Chem. Phys. 2020 152(22), 224108
     doi.org/10.1063/5.0004608
  7. Neese, F.
     Software update: The ORCA program system—Version 5.0
     WIRES Comput. Molec. Sci. 2022 12(1), e1606
     doi.org/10.1002/wcms.1606

List of optional additional citations

  1. Neese, F.
     Approximate second-order SCF convergence for spin unrestricted wavefunctions
     Chem. Phys. Lett. 2000 325(1-3), 93-98
     doi.org/10.1016/s0009-2614(00)00662-x

Timings for individual modules:

Sum of individual times          ...      189.052 sec (=   3.151 min)
Startup calculation              ...        5.762 sec (=   0.096 min)   3.0 %
SCF iterations                   ...      142.100 sec (=   2.368 min)  75.2 %
Property calculations            ...        0.497 sec (=   0.008 min)   0.3 %
SCF Gradient evaluation          ...       40.693 sec (=   0.678 min)  21.5 %
                             ****ORCA TERMINATED NORMALLY****
TOTAL RUN TIME: 0 days 0 hours 3 minutes 9 seconds 636 msec
