
                                 *****************
                                 * O   R   C   A *
                                 *****************

                                            #,                                       
                                            ###                                      
                                            ####                                     
                                            #####                                    
                                            ######                                   
                                           ########,                                 
                                     ,,################,,,,,                         
                               ,,#################################,,                 
                          ,,##########################################,,             
                       ,#########################################, ''#####,          
                    ,#############################################,,   '####,        
                  ,##################################################,,,,####,       
                ,###########''''           ''''###############################       
              ,#####''   ,,,,##########,,,,          '''####'''          '####       
            ,##' ,,,,###########################,,,                        '##       
           ' ,,###''''                  '''############,,,                           
         ,,##''                                '''############,,,,        ,,,,,,###''
      ,#''                                            '''#######################'''  
     '                                                          ''''####''''         
             ,#######,   #######,   ,#######,      ##                                
            ,#'     '#,  ##    ##  ,#'     '#,    #''#        ,####,    ,#,          
            ##       ##  ##   ,#'  ##            #'  '#       #'       ,# #          
            ##       ##  #######   ##           ,######,      #####,      #          
            '#,     ,#'  ##    ##  '#,     ,#' ,#      #,     #,   #      #          
             '#######'   ##     ##  '#######'  #'      '#     '####' #    #          



                #########################################################
                #                        -***-                          #
                #          Department of theory and spectroscopy        #
                #                                                       #
                #                      Frank Neese                      #
                #                                                       #
                #     Directorship, Architecture, Infrastructure        #
                #                    SHARK, DRIVERS                     #
                #        Core code/Algorithms in most modules           #
                #                                                       #
                #        Max Planck Institute fuer Kohlenforschung      #
                #                Kaiser Wilhelm Platz 1                 #
                #                 D-45470 Muelheim/Ruhr                 #
                #                      Germany                          #
                #                                                       #
                #                  All rights reserved                  #
                #                        -***-                          #
                #########################################################


                         Program Version 6.1.0  -  RELEASE   -
                                (GIT: $679e74b$)
                          ($2025-06-10 18:02:51 +0200$)


 With contributions from (in alphabetic order):
[Max-Planck-Institut fuer Kohlenforschung]                               
  Daniel Aravena         : Magnetic Suceptibility                        
  Michael Atanasov       : Ab Initio Ligand Field Theory (pilot matlab implementation)
  Alexander A. Auer      : GIAO ZORA, VPT2 properties, NMR spectrum      
  Ute Becker             : All parallelization in ORCA, NUMFREQ, NUMCALC 
  Giovanni Bistoni       : ED, misc. LED, open-shell LED, HFLD           
  Dmytro Bykov           : pre 5.0 version of the SCF Hessian            
  Marcos Casanova-Páez   : Triplet and SCS-CIS(D). UHF-(DLPNO)-IP/EA/STEOM-CCSD. UHF-CVS-IP/STEOM-CCSD   
  Vijay G. Chilkuri      : MRCI spin determinant printing, contributions to CSF-ICE 
  Pauline Colinet        : FMM embedding                                 
  Dipayan Datta          : RHF DLPNO-CCSD density                        
  Achintya Kumar Dutta   : EOM-CC, STEOM-CC                              
  Nicolas Foglia         : Exact transition moments, OPA infrastructure, MCD improvements    
  Dmitry Ganyushin       : Spin-Orbit,Spin-Spin,Magnetic field MRCI      
  Miquel Garcia-Rates    : C-PCM and meta-GGA Hessian, CCSD/C-PCM, Gaussian charge scheme 
  Tiago L. C. Gouveia    : GS-ROHF, GS-ROCIS                             
  Yang Guo               : DLPNO-NEVPT2, F12-NEVPT2, CIM, IAO-localization        
  Andreas Hansen         : Spin unrestricted coupled pair/coupled cluster methods 
  Ingolf Harden          : AUTO-CI MPn and infrastructure                
  Benjamin Helmich-Paris : MC-RPA, TRAH-(SCF,CASSCF), AVAS, COSX integrals, SCF dyn. polar., MC-PDFT, srDFT 
  Lee Huntington         : MR-EOM, pCC                                   
  Robert Izsak           : Overlap fitted RIJCOSX, COSX-SCS-MP3, EOM     
  Riya Kayal             : Wick's Theorem for AUTO-CI, AUTO-CI UHF-CCSDT 
  Emily Kempfer          : AUTO-CI RHF CISDT and CCSDT, approximate NEVPT4
  Christian Kollmar      : KDIIS, OOCD, Brueckner-CCSD(T), CCSD density, CASPT2, CASPT2-K, improved NEVPT2 
  Axel Koslowski         : Symmetry handling                             
  Simone Kossmann        : meta-GGA functionals, TD-DFT gradient, OOMP2, (MP2 Hessian; deprecated post 5.0) 
  Lucas Lang             : DCDCAS, Hyperfine gauge corrections, ICE-SOC+SSC
  Marvin Lechner         : AUTO-CI (C++ implementation), FIC-MRCC        
  Spencer Leger          : CASSCF response                               
  Dagmar Lenk            : GEPOL surface, SMD, ORCA-2-JSON               
  Dimitrios Liakos       : Extrapolation schemes; Compound Job, Property file
  Dimitrios Manganas     : Further ROCIS development; embedding schemes. LFT, Crystal Embedding 
  Dimitrios Pantazis     : SARC Basis sets                               
  Anastasios Papadopoulos: AUTO-CI, single reference methods and gradients 
  Taras Petrenko         : pre 6.0 DFT Hessian and TD-DFT gradient,  ECA, NRVS 
  Petra Pikulova         : Analytic Raman intensities                    
  Peter Pinski           : DLPNO-MP2, DLPNO-MP2 Gradient                 
  Shashank Vittal Rao    : ES-AILFT, MagRelax                            
  Christoph Reimann      : Effective Core Potentials                     
  Marius Retegan         : Local ZFS, SOC                                
  Christoph Riplinger    : Optimizer, TS searches, QM/MM, DLPNO-CCSD(T), (RO)-DLPNO pert. Triples 
  Michael Roemelt        : Original ROCIS implementation, recursive CI coupling coefficients
  Masaaki Saitow         : Open-shell DLPNO-CCSD energy and density      
  Barbara Sandhoefer     : DKH picture change effects                    
  Yorick L. A. Schmerwitz: GMF and freeze-and-release deltaSCF, NEB S-IDPP initial path                    
  Kantharuban Sivalingam : CASSCF convergence/infrastructure, NEVPT2, NEVPT3, NEVPT4(SD), FIC-MRCI and CEPA variants
  Bernardo de Souza      : ESD, SOC TD-DFT                               
  Georgi L. Stoychev     : AutoAux, RI-MP2 NMR, DLPNO-MP2 response, X2C  
  Van Anh Tran           : RI-MP2 g-tensors                              
  Willem Van den Heuvel  : Paramagnetic NMR                              
  Zikuan Wang            : NOTCH, Electric field optimization            
  Frank Wennmohs         : Technical directorship and infrastructure     
  Hang Xu                : AUTO-CI-Response properties                   
                                                                         
[FACCTs GmbH]                                                            
  Markus Bursch, Nicolas Foglia, Miquel Garcia-Rates, Ingolf Harden, Hagen Neugebauer, Anastasios Papadopoulos, 
  Christoph Riplinger, Bernardo de Souza, Georgi L. Stoychev                                                    
                                                                 
  APM, various basis sets, CI-OPT, improved COSX, DLPNO-Multilevel,           
  DOCKER, DRACO, updates on ESD, Fragmentator, GOAT, IRC, LR-CPCM, L-BFGS, MBIS, meta-GGA TD-DFT gradient, ML-optimized integration grids, 
  MM, NACMEs, nearIR, NEB, NEB-TS, NL-DFT gradient (VV10), 2- and 3-layer-ONIOM, interface openCOSMO-RS, QMMM,   
  Crystal-QMMM, RESP, rigid body optimization, SF, symmetry and pop. for TD-DFT, various functionals, SOLVATOR                                   
                                                                         
[Other institutions]                                                     
  V. Asgeirsson          : NEB                                           
  Christoph Bannwarth    : sTDA-DFT, sTD-DFT, PBEh-3c, B97-3c, D3        
  Giovanni Bistoni       : ETS/NOCV, ADLD/ADEX, COVALED                  
  Martin Brehm           : Molecular dynamics                            
  Ronald Cardenas        : ETS/NOCV                                      
  Martina Colucci        : COVALED                                       
  Sebastian Ehlert       : rSCAN, r2SCAN, r2SCAN-3c, D4, dhf basis sets  
  Marvin Friede          : D4 for Fr, Ra, Ac-Lr                          
  Lars Goerigk           : TD-DFT with DH, B97 family of functionals     
  Stefan Grimme          : VdW corrections, initial TS optimization, DFT functionals, gCP, sTDA/sTD-DF 
  Waldemar Hujo          : DFT-NL                                        
  H. Jonsson             : NEB                                           
  Holger Kruse           : gCP                                           
  Marcel Mueller         : wB97X-3c, vDZP basis set                      
  Hagen Neugebauer       : wr2SCAN, Native XTB                           
  Gianluca Regni         : ADLD/ADEX                                     
  Tobias Risthaus        : pre 6.0 range-separated hybrid DFT and stability analysis
  Lukas Wittmann         : regularized MP2, r2SCAN double-hybrids, wr2SCAN        
                                                                         
We gratefully acknowledge several colleagues who have allowed us to      
interface, adapt or use parts of their codes:                            
  Ed Valeev, F. Pavosevic, A. Kumar             : LibInt (2-el integral package), F12 methods 
  Garnet Chan, S. Sharma, J. Yang, R. Olivares  : DMRG                   
  Ulf Ekstrom                                   : XCFun DFT Library      
  Mihaly Kallay                                 : mrcc  (arbitrary order and MRCC methods)
  Frank Weinhold                                : gennbo (NPA and NBO analysis)           
  Simon Mueller                                 : openCOSMO-RS                            
  Christopher J. Cramer and Donald G. Truhlar   : smd solvation model                     
  S Lehtola, MJT Oliveira, MAL Marques          : LibXC Library                           
  Liviu Ungur et al                             : ANISO software                          


 Your calculation uses the libint2 library for the computation of 2-el integrals
 For citations please refer to: http://libint.valeyev.net

 Your ORCA version has been built with support for libXC version: 7.0.0
 For citations please refer to: https://libxc.gitlab.io

 This ORCA versions uses:
   CBLAS   interface :  Fast vector & matrix operations
   LAPACKE interface :  Fast linear algebra routines
   SCALAPACK package :  Parallel linear algebra routines
   Shared memory     :  Shared parallel matrices
   BLAS/LAPACK       :  OpenBLAS 0.3.29  USE64BITINT DYNAMIC_ARCH NO_AFFINITY Zen SINGLE_THREADED
        Core in use  :  Zen
   Copyright (c) 2011-2014, The OpenBLAS Project


  ***********************************
  * Starting time: Wed Sep 10 13:38:12 2025
  * Host name:     wyk-Server
  * Process ID:    2308182
  * Working dir.:  /home/wyk/Documents/code/openQDC/MGMR/singlepointcalc/94/prod
  ***********************************

Your calculation utilizes the atom-pairwise dispersion correction
with the Becke-Johnson damping scheme (D3BJ)


Warning: RI is on but no J-basis has been assigned. Assigning Def2/J (nothing to worry about!)
================================================================================

----- Orbital basis set information -----
Your calculation utilizes the basis: def2-SVP
   F. Weigend and R. Ahlrichs, Phys. Chem. Chem. Phys. 7, 3297 (2005).

----- AuxJ basis set information -----
Your calculation utilizes the auxiliary basis: def2/J
   H-Rn: F. Weigend, Phys. Chem. Chem. Phys. 8, 1057 (2006).
   Fr-Lr: K. Eichkorn, F. Weigend, O. Treutler, R. Ahlrichs; Theor. Chem. Acc. 97, 119 (1997).

================================================================================
                                        WARNINGS
                       Please study these warnings very carefully!
================================================================================


================================================================================
                                       INPUT FILE
================================================================================
NAME = orca.inp
|  1> ! B3LYP def2-SVP d3 EnGrad 
|  2> %pal nprocs 6 end 
|  3> *xyz 0 1 
|  4> C   -0.89257396815325 -1.7357529530106 0.08469262230579
|  5> C   -0.6659716005118 -0.24386209431361 -0.09285911932551
|  6> H   -1.96838433568612 -1.9349957665797 0.01118405820874
|  7> H   -0.54774262702921 -2.05973518153283 1.07537254727352
|  8> H   -0.37013209073335 -2.30040347542006 -0.69887810142766
|  9> O   -1.32949943553201 0.50648673260283 0.9344121417627
| 10> O   -2.73966354851078 0.22981406653503 0.88762929152895
| 11> H   -2.94635490561114 0.49243216830797 -0.03020874797542
| 12> O   -1.24611024699424 0.10230814481705 -1.34060044295569
| 13> C   0.77917768435891 0.2495230646507 -0.00230560782856
| 14> C   1.78776087667835 -0.593459466741 0.27327656077145
| 15> C   3.24928063080962 -0.28010389895346 0.37927482123439
| 16> H   1.54227641972767 -1.64525171317381 0.4446020038763
| 17> H   3.48454298338105 0.78255404320059 0.23180409493174
| 18> H   3.8236285745854 -0.8597888873327 -0.36487469678961
| 19> H   3.63772108171788 -0.57923901905875 1.3685155231161
| 20> C   0.95239754347927 1.72952255597692 -0.24724893742867
| 21> H   -0.92294482138694 0.97906637749467 -1.59022497694766
| 22> H   1.97646251095755 2.06653973537139 -0.04542256203874
| 23> H   0.26400385206647 2.30635758562697 0.38850354860726
| 24> H   0.73997942238672 2.00218198153243 -1.29865102089939
| 25> *
| 26> 
| 27>                          ****END OF INPUT****
================================================================================

                     *******************************
                     * Energy+Gradient Calculation *
                     *******************************

---------------------------------
CARTESIAN COORDINATES (ANGSTROEM)
---------------------------------
  C     -0.892574   -1.735753    0.084693
  C     -0.665972   -0.243862   -0.092859
  H     -1.968384   -1.934996    0.011184
  H     -0.547743   -2.059735    1.075373
  H     -0.370132   -2.300403   -0.698878
  O     -1.329499    0.506487    0.934412
  O     -2.739664    0.229814    0.887629
  H     -2.946355    0.492432   -0.030209
  O     -1.246110    0.102308   -1.340600
  C      0.779178    0.249523   -0.002306
  C      1.787761   -0.593459    0.273277
  C      3.249281   -0.280104    0.379275
  H      1.542276   -1.645252    0.444602
  H      3.484543    0.782554    0.231804
  H      3.823629   -0.859789   -0.364875
  H      3.637721   -0.579239    1.368516
  C      0.952398    1.729523   -0.247249
  H     -0.922945    0.979066   -1.590225
  H      1.976463    2.066540   -0.045423
  H      0.264004    2.306358    0.388504
  H      0.739979    2.002182   -1.298651

----------------------------
CARTESIAN COORDINATES (A.U.)
----------------------------
  NO LB      ZA    FRAG     MASS         X           Y           Z
   0 C     6.0000    0    12.011   -1.686720   -3.280098    0.160046
   1 C     6.0000    0    12.011   -1.258504   -0.460833   -0.175478
   2 H     1.0000    0     1.008   -3.719707   -3.656612    0.021135
   3 H     1.0000    0     1.008   -1.035084   -3.892335    2.032160
   4 H     1.0000    0     1.008   -0.699448   -4.347133   -1.320688
   5 O     8.0000    0    15.999   -2.512390    0.957121    1.765783
   6 O     8.0000    0    15.999   -5.177214    0.434286    1.677376
   7 H     1.0000    0     1.008   -5.567804    0.930562   -0.057086
   8 O     8.0000    0    15.999   -2.354807    0.193334   -2.533368
   9 C     6.0000    0    12.011    1.472432    0.471530   -0.004357
  10 C     6.0000    0    12.011    3.378378   -1.121476    0.516418
  11 C     6.0000    0    12.011    6.140251   -0.529320    0.716726
  12 H     1.0000    0     1.008    2.914480   -3.109075    0.840176
  13 H     1.0000    0     1.008    6.584832    1.478813    0.438046
  14 H     1.0000    0     1.008    7.225611   -1.624766   -0.689513
  15 H     1.0000    0     1.008    6.874297   -1.094603    2.586120
  16 C     6.0000    0    12.011    1.799771    3.268324   -0.467233
  17 H     1.0000    0     1.008   -1.744113    1.850167   -3.005090
  18 H     1.0000    0     1.008    3.734973    3.905194   -0.085836
  19 H     1.0000    0     1.008    0.498895    4.358384    0.734165
  20 H     1.0000    0     1.008    1.398358    3.783576   -2.454095

--------------------------------
INTERNAL COORDINATES (ANGSTROEM)
--------------------------------
 C      0   0   0     0.000000000000     0.00000000     0.00000000
 C      1   0   0     1.519411592769     0.00000000     0.00000000
 H      1   2   0     1.096571545612   108.47472853     0.00000000
 H      1   2   3     1.097870598911   110.38696944   241.41295352
 H      1   2   3     1.098070492651   110.52173095   119.43986756
 O      2   1   3     1.434774823364   111.15324935    61.28105404
 O      6   2   1     1.437810566368   109.24686043   300.76323213
 H      7   6   2     0.976788744427   100.74116663   302.30694807
 O      2   1   3     1.418891501947   106.33993978   303.69273237
 C      2   1   3     1.529733737973   116.78620963   179.09454477
 C     10   2   1     1.343058128195   121.27487371   357.46992238
 C     11  10   2     1.498488349905   128.00247241   179.10932829
 H     11  10   2     1.093563878205   117.85619500   359.21486826
 H     12  11  10     1.098334143909   113.68694573     1.60816890
 H     12  11  10     1.104386142365   110.47535455   240.24476496
 H     12  11  10     1.104067466345   110.47933896   123.06099471
 C     10   2   1     1.510099615468   114.51078332   177.40316263
 H      9   2   1     0.967188347142   108.15014487   194.59560178
 H     17  10   2     1.096824289769   112.23417756   172.51457471
 H     17  10   2     1.100366188734   110.38306513    51.39005498
 H     17  10   2     1.106756956897   111.93308270   291.77149520

---------------------------
INTERNAL COORDINATES (A.U.)
---------------------------
 C      0   0   0     0.000000000000     0.00000000     0.00000000
 C      1   0   0     2.871271795038     0.00000000     0.00000000
 H      1   2   0     2.072219907457   108.47472853     0.00000000
 H      1   2   3     2.074674762426   110.38696944   241.41295352
 H      1   2   3     2.075052506851   110.52173095   119.43986756
 O      2   1   3     2.711331480003   111.15324935    61.28105404
 O      6   2   1     2.717068202893   109.24686043   300.76323213
 H      7   6   2     1.845863217665   100.74116663   302.30694807
 O      2   1   3     2.681316352428   106.33993978   303.69273237
 C      2   1   3     2.890777822589   116.78620963   179.09454477
 C     10   2   1     2.538012044226   121.27487371   357.46992238
 C     11  10   2     2.831732596192   128.00247241   179.10932829
 H     11  10   2     2.066536239757   117.85619500   359.21486826
 H     12  11  10     2.075550735523   113.68694573     1.60816890
 H     12  11  10     2.086987355167   110.47535455   240.24476496
 H     12  11  10     2.086385144765   110.47933896   123.06099471
 C     10   2   1     2.853674708173   114.51078332   177.40316263
 H      9   2   1     1.827721096018   108.15014487   194.59560178
 H     17  10   2     2.072697524695   112.23417756   172.51457471
 H     17  10   2     2.079390743734   110.38306513    51.39005498
 H     17  10   2     2.091467545347   111.93308270   291.77149520

---------------------
BASIS SET INFORMATION
---------------------
There are 3 groups of distinct atoms

 Group   1 Type C   : 7s4p1d contracted to 3s2p1d pattern {511/31/1}
 Group   2 Type H   : 4s1p contracted to 2s1p pattern {31/1}
 Group   3 Type O   : 7s4p1d contracted to 3s2p1d pattern {511/31/1}

Atom   0C    basis set group =>   1
Atom   1C    basis set group =>   1
Atom   2H    basis set group =>   2
Atom   3H    basis set group =>   2
Atom   4H    basis set group =>   2
Atom   5O    basis set group =>   3
Atom   6O    basis set group =>   3
Atom   7H    basis set group =>   2
Atom   8O    basis set group =>   3
Atom   9C    basis set group =>   1
Atom  10C    basis set group =>   1
Atom  11C    basis set group =>   1
Atom  12H    basis set group =>   2
Atom  13H    basis set group =>   2
Atom  14H    basis set group =>   2
Atom  15H    basis set group =>   2
Atom  16C    basis set group =>   1
Atom  17H    basis set group =>   2
Atom  18H    basis set group =>   2
Atom  19H    basis set group =>   2
Atom  20H    basis set group =>   2
---------------------------------
AUXILIARY/J BASIS SET INFORMATION
---------------------------------
There are 3 groups of distinct atoms

 Group   1 Type C   : 12s5p4d2f1g contracted to 6s4p3d1f1g pattern {711111/2111/211/2/1}
 Group   2 Type H   : 5s2p1d contracted to 3s1p1d pattern {311/2/1}
 Group   3 Type O   : 12s5p4d2f1g contracted to 6s4p3d1f1g pattern {711111/2111/211/2/1}

Atom   0C    basis set group =>   1
Atom   1C    basis set group =>   1
Atom   2H    basis set group =>   2
Atom   3H    basis set group =>   2
Atom   4H    basis set group =>   2
Atom   5O    basis set group =>   3
Atom   6O    basis set group =>   3
Atom   7H    basis set group =>   2
Atom   8O    basis set group =>   3
Atom   9C    basis set group =>   1
Atom  10C    basis set group =>   1
Atom  11C    basis set group =>   1
Atom  12H    basis set group =>   2
Atom  13H    basis set group =>   2
Atom  14H    basis set group =>   2
Atom  15H    basis set group =>   2
Atom  16C    basis set group =>   1
Atom  17H    basis set group =>   2
Atom  18H    basis set group =>   2
Atom  19H    basis set group =>   2
Atom  20H    basis set group =>   2


           ************************************************************
           *        Program running with 6 parallel MPI-processes     *
           *              working on a common directory               *
           ************************************************************
------------------------------------------------------------------------------
                             ORCA STARTUP CALCULATIONS
                           -- RI-GTO INTEGRALS CHOSEN --
------------------------------------------------------------------------------
------------------------------------------------------------------------------
                   ___                                                        
                  /   \      - P O W E R E D   B Y -                         
                 /     \                                                     
                 |  |  |   _    _      __       _____    __    __             
                 |  |  |  | |  | |    /  \     |  _  \  |  |  /  |          
                  \  \/   | |  | |   /    \    | | | |  |  | /  /          
                 / \  \   | |__| |  /  /\  \   | |_| |  |  |/  /          
                |  |  |   |  __  | /  /__\  \  |    /   |      \           
                |  |  |   | |  | | |   __   |  |    \   |  |\   \          
                \     /   | |  | | |  |  |  |  | |\  \  |  | \   \       
                 \___/    |_|  |_| |__|  |__|  |_| \__\ |__|  \__/        
                                                                              
                      - O R C A' S   B I G   F R I E N D -                    
                                      &                                       
                       - I N T E G R A L  F E E D E R -                       
                                                                              
 v1 FN, 2020, v2 2021, v3 2022-2024                                           
------------------------------------------------------------------------------


----------------------
SHARK INTEGRAL PACKAGE
----------------------

Number of atoms                             ...     21
Number of basis functions                   ...    186
Number of shells                            ...     90
Maximum angular momentum                    ...      2
Integral batch strategy                     ... SHARK/LIBINT Hybrid
RI-J (if used) integral strategy            ... SPLIT-RIJ (Revised 2003 algorithm where possible)
Printlevel                                  ...      1
Contraction scheme used                     ... SEGMENTED contraction
Prescreening option                         ... SCHWARTZ
   Thresh                                   ... 2.500e-11
   Tcut                                     ... 2.500e-12
   Tpresel                                  ... 2.500e-12 
Coulomb Range Separation                    ... NOT USED
Exchange Range Separation                   ... NOT USED
Multipole approximations                    ... NOT USED
Finite Nucleus Model                        ... NOT USED
CABS basis                                  ... NOT available
Auxiliary Coulomb fitting basis             ... AVAILABLE
   # of basis functions in Aux-J            ...    573
   # of shells in Aux-J                     ...    195
   Maximum angular momentum in Aux-J        ...      4
Auxiliary J/K fitting basis                 ... NOT available
Auxiliary Correlation fitting basis         ... NOT available
Auxiliary 'external' fitting basis          ... NOT available

Checking pre-screening integrals            ... done (  0.0 sec) Dimension = 90
   => SHARK Basis and OBASIS are compatible. Storing Pre-screening
Shell pair information
Shell pair cut-off parameter TPreSel        ...   2.5e-12
Total number of shell pairs                 ...      4095
Shell pairs after pre-screening             ...      3791
Total number of primitive shell pairs       ...     14349
Primitive shell pairs kept                  ...      9619
          la=0 lb=0:   1239 shell pairs
          la=1 lb=0:   1420 shell pairs
          la=1 lb=1:    424 shell pairs
          la=2 lb=0:    422 shell pairs
          la=2 lb=1:    245 shell pairs
          la=2 lb=2:     41 shell pairs

Checking whether 4 symmetric matrices of dimension 186 fit in memory
:Max Core in MB      =   4096.00
 MB in use           =      8.15
 MB left             =   4087.85
 MB needed           =      0.53
 Data fit in memory  = YES
Calculating RI/J V-Matrix + Cholesky decomp.... done (  0.0 sec)
Calculating Nuclear repulsion               ... done (  0.0 sec) ENN=    495.530117885707 Eh

Diagonalization of the overlap matrix:
Smallest eigenvalue                        ... 8.605e-04
Time for diagonalization                   ...    0.004 sec
Threshold for overlap eigenvalues          ... 1.000e-07
Number of eigenvalues below threshold      ... 0
Time for construction of square roots      ...    0.002 sec
Total time needed                          ...    0.007 sec

-------------------
DFT GRID GENERATION
-------------------

General Integration Accuracy     IntAcc      ... 4.388
Radial Grid Type                 RadialGrid  ... OptM3 with GC (2021)
Angular Grid (max. ang.)         AngularGrid ... 4 (Lebedev-302)
Angular grid pruning method      GridPruning ... 4 (adaptive)
Weight generation scheme         WeightScheme... mBecke (2022)
Basis function cutoff            BFCut       ... 1.0000e-11
Integration weight cutoff        WCut        ... 1.0000e-14
Partially contracted basis set               ... off
Rotationally invariant grid construction     ... off
Angular grids for H and He will be reduced by one unit

Total number of grid points                  ...    92613
Total number of batches                      ...     1459
Average number of points per batch           ...       63
Average number of grid points per atom       ...     4410

--------------------
COSX GRID GENERATION
--------------------

GRIDX 1
-------
General Integration Accuracy     IntAcc      ... 3.816
Radial Grid Type                 RadialGrid  ... OptM3 with GC (2021)
Angular Grid (max. ang.)         AngularGrid ... 1 (Lebedev-50)
Angular grid pruning method      GridPruning ... 4 (adaptive)
Weight generation scheme         WeightScheme... mBecke (2022)
Basis function cutoff            BFCut       ... 1.0000e-11
Integration weight cutoff        WCut        ... 1.0000e-14
Partially contracted basis set               ... on
Rotationally invariant grid construction     ... off
Angular grids for H and He will be reduced by one unit

Total number of grid points                  ...    11850
Total number of batches                      ...      105
Average number of points per batch           ...      112
Average number of grid points per atom       ...      564
UseSFitting                                  ... on

GRIDX 2
-------
General Integration Accuracy     IntAcc      ... 4.020
Radial Grid Type                 RadialGrid  ... OptM3 with GC (2021)
Angular Grid (max. ang.)         AngularGrid ... 2 (Lebedev-110)
Angular grid pruning method      GridPruning ... 4 (adaptive)
Weight generation scheme         WeightScheme... mBecke (2022)
Basis function cutoff            BFCut       ... 1.0000e-11
Integration weight cutoff        WCut        ... 1.0000e-14
Partially contracted basis set               ... on
Rotationally invariant grid construction     ... off
Angular grids for H and He will be reduced by one unit

Total number of grid points                  ...    25063
Total number of batches                      ...      209
Average number of points per batch           ...      119
Average number of grid points per atom       ...     1193
UseSFitting                                  ... on

GRIDX 3
-------
General Integration Accuracy     IntAcc      ... 4.338
Radial Grid Type                 RadialGrid  ... OptM3 with GC (2021)
Angular Grid (max. ang.)         AngularGrid ... 3 (Lebedev-194)
Angular grid pruning method      GridPruning ... 4 (adaptive)
Weight generation scheme         WeightScheme... mBecke (2022)
Basis function cutoff            BFCut       ... 1.0000e-11
Integration weight cutoff        WCut        ... 1.0000e-14
Partially contracted basis set               ... on
Rotationally invariant grid construction     ... off
Angular grids for H and He will be reduced by one unit

Total number of grid points                  ...    54922
Total number of batches                      ...      441
Average number of points per batch           ...      124
Average number of grid points per atom       ...     2615
UseSFitting                                  ... on
Grids setup in   1.3 sec
Initializing property integral containers    ... done (  0.0 sec)

SHARK setup successfully completed in   1.5 seconds

Maximum memory used throughout the entire STARTUP-calculation: 25.9 MB


           ************************************************************
           *        Program running with 6 parallel MPI-processes     *
           *              working on a common directory               *
           ************************************************************
-------------------------------------------------------------------------------
                                 ORCA GUESS
                   Start orbitals & Density for SCF / CASSCF
-------------------------------------------------------------------------------

------------
SCF SETTINGS
------------
Hamiltonian:
 Density Functional     Method          .... DFT(GTOs)
 Exchange Functional    Exchange        .... B88
   X-Alpha parameter    XAlpha          ....  0.666667
   Becke's b parameter  XBeta           ....  0.004200
 Correlation Functional Correlation     .... LYP
 LDA part of GGA corr.  LDAOpt          .... VWN-5
 Gradients option       PostSCFGGA      .... off
 Hybrid DFT is turned on
   Fraction HF Exchange ScalHFX         ....  0.200000
   Scaling of DF-GGA-X  ScalDFX         ....  0.720000
   Scaling of DF-GGA-C  ScalDFC         ....  0.810000
   Scaling of DF-LDA-C  ScalLDAC        ....  1.000000
   Perturbative correction              ....  0.000000
   NL short-range parameter             ....  4.800000
 RI-approximation to the Coulomb term is turned on
   Number of AuxJ basis functions       .... 573
   RIJ-COSX (HFX calculated with COS-X)).... on


General Settings:
 Integral files         IntName         .... orca
 Hartree-Fock type      HFTyp           .... RHF
 Total Charge           Charge          ....    0
 Multiplicity           Mult            ....    1
 Number of Electrons    NEL             ....   72
 Basis Dimension        Dim             ....  186
 Nuclear Repulsion      ENuc            ....    495.5301178857 Eh

Convergence Acceleration:
 AO-DIIS                CNVDIIS         .... on
   Start iteration      DIISMaxIt       ....    12
   Startup error        DIISStart       ....  0.200000
   # of expansion vecs  DIISMaxEq       ....     5
   Bias factor          DIISBfac        ....   1.050
   Max. coefficient     DIISMaxC        ....  10.000
 MO-DIIS                CNVKDIIS        .... off
 Trust-Rad. Augm. Hess. CNVTRAH         .... auto
   Auto Start mean grad. ratio tolernc. ....  1.125000
   Auto Start start iteration           ....    50
   Auto Start num. interpolation iter.  ....    10
   Max. Number of Micro iterations      ....    24
   Max. Number of Macro iterations      .... Maxiter - #DIIS iter
   Number of Davidson start vectors     ....     2
   Converg. threshold    (grad. norm)   ....   1.000e-05
   Grad. Scal. Fac. for Micro threshold ....   0.100
   Minimum threshold for Micro iter.    ....   1.000e-02
   NR start threshold (gradient norm)   ....   1.000e-04
   Initial trust radius                 ....   0.400
   Minimum AH scaling param. (alpha)    ....   1.000
   Maximum AH scaling param. (alpha)    .... 1000.000
   Quad. conv. algorithm                .... NR
   White noise on init. David. guess    .... on
   Maximum white noise                  ....   0.010
   Pseudo random numbers                .... off
   Inactive MOs                         .... canonical
   Orbital update algorithm             .... Taylor
   Preconditioner                       .... Diag
   Full preconditioner red. dimension   ....   250
 SOSCF                 CNVSOSCF           .... on
   Start iteration     SOSCFMaxIt         ....   150
   Startup grad/error  SOSCFStart         ....  0.003300
   Hessian update      SOSCFHessUp        .... L-BFGS
   Autom. constraints  SOSCFAutoConstrain .... off
 Level Shifting         CNVShift        .... on
   Level shift para.    LevelShift      ....    0.2500
   Turn off err/grad.   ShiftErr        ....    0.0010
 Zerner damping         CNVZerner       .... off
 Static damping         CNVDamp         .... on
   Fraction old density DampFac         ....    0.7000
   Max. Damping (<1)    DampMax         ....    0.9800
   Min. Damping (>=0)   DampMin         ....    0.0000
   Turn off err/grad.   DampErr         ....    0.1000

SCF Procedure:
 Maximum # iterations   MaxIter         ....   125
 SCF integral mode      SCFMode         .... Direct
   Integral package                     .... SHARK and LIBINT hybrid scheme
 Reset frequency        DirectResetFreq ....    20
 Integral Threshold     Thresh          ....  2.500e-11 Eh
 Primitive CutOff       TCut            ....  2.500e-12 Eh

Convergence Tolerance:
 Convergence Check Mode ConvCheckMode   .... Total+1el-Energy
 Convergence forced     ConvForced      .... 0
 Energy Change          TolE            ....  1.000e-08 Eh
 1-El. energy change                    ....  1.000e-05 Eh
 Orbital Gradient       TolG            ....  1.000e-05
 Orbital Rotation angle TolX            ....  1.000e-05
 DIIS Error             TolErr          ....  5.000e-07

------------------------------
INITIAL GUESS: MODEL POTENTIAL
------------------------------
Loading Hartree-Fock densities                     ... done
Calculating cut-offs                               ... done
Initializing the effective Hamiltonian             ... done
Setting up the integral package (SHARK)            ... done
Starting the Coulomb interaction                   ... done (   0.1 sec)
Making the grid                                    ... done (   0.2 sec)
Mapping shells                                     ... done
Starting the XC term evaluation                    ... done (   0.1 sec)
  promolecular density results
     # of electrons  =     71.991061225
     EX              =    -58.956932656
     EC              =     -2.431182961
     EX+EC           =    -61.388115617
Transforming the Hamiltonian                       ... done (   0.0 sec)
Diagonalizing the Hamiltonian                      ... done (   0.0 sec)
Back transforming the eigenvectors                 ... done (   0.0 sec)
Now organizing SCF variables                       ... done
                      ------------------
                      INITIAL GUESS DONE (   0.3 sec)
                      ------------------
             **** ENERGY FILE WAS UPDATED (orca.en.tmp) ****
Finished Guess after   0.4 sec
Maximum memory used throughout the entire GUESS-calculation: 11.1 MB


           ************************************************************
           *        Program running with 6 parallel MPI-processes     *
           *              working on a common directory               *
           ************************************************************

-------------------------------------------------------------------------------------------
                                      ORCA LEAN-SCF
                              memory conserving SCF solver
-------------------------------------------------------------------------------------------

----------------------------------------D-I-I-S--------------------------------------------
Iteration    Energy (Eh)           Delta-E    RMSDP     MaxDP     DIISErr   Damp  Time(sec)
-------------------------------------------------------------------------------------------
               ***  Starting incremental Fock matrix formation  ***
    1    -460.5468452318147001     0.00e+00  7.91e-03  8.09e-02  2.31e-01  0.700   1.7
    2    -460.6712498268252602    -1.24e-01  5.35e-03  5.02e-02  9.92e-02  0.700   1.0
                               ***Turning on AO-DIIS***
    3    -460.7217920013495132    -5.05e-02  2.11e-03  1.51e-02  3.66e-02  0.700   1.0
    4    -460.7513853362166856    -2.96e-02  3.64e-03  2.16e-02  1.83e-02  0.000   0.9
    5    -460.8156519274655238    -6.43e-02  6.83e-04  4.24e-03  5.08e-03  0.000   0.9
                              *** Initializing SOSCF ***
---------------------------------------S-O-S-C-F--------------------------------------
Iteration    Energy (Eh)           Delta-E    RMSDP     MaxDP     MaxGrad    Time(sec)
--------------------------------------------------------------------------------------
    6    -460.8159170820367763    -2.65e-04  2.32e-04  1.47e-03  2.02e-03     0.9
               *** Restarting incremental Fock matrix formation ***
    7    -460.8159712804153969    -5.42e-05  1.52e-04  1.12e-03  1.49e-04     1.7
    8    -460.8159702462110090     1.03e-06  6.12e-05  8.71e-04  3.55e-04     1.4
    9    -460.8159738636878728    -3.62e-06  3.29e-05  2.76e-04  6.28e-05     1.2
   10    -460.8159737809165790     8.28e-08  1.63e-05  1.41e-04  5.26e-05     1.2
   11    -460.8159739956017802    -2.15e-07  2.98e-06  4.37e-05  5.99e-06     1.1
   12    -460.8159739967155701    -1.11e-09  1.70e-06  2.62e-05  8.70e-06     0.9
                 **** Energy Check signals convergence ****

               *****************************************************
               *                     SUCCESS                       *
               *           SCF CONVERGED AFTER  12 CYCLES          *
               *****************************************************

Recomputing exchange energy using gridx3       ... done (    2.619 sec)
Old exchange energy                            :    -11.977946177 Eh
New exchange energy                            :    -11.977952485 Eh
Exchange energy change after final integration :     -0.000006308 Eh
Total energy after final integration           :   -460.815980306 Eh
             **** ENERGY FILE WAS UPDATED (orca.en.tmp) ****

----------------
TOTAL SCF ENERGY
----------------

Total Energy       :       -460.81598030639964 Eh          -12539.44032 eV

Components:
Nuclear Repulsion  :        495.53011788570734 Eh           13484.06002 eV
Electronic Energy  :       -956.34609188402908 Eh          -26023.50017 eV
One Electron Energy:      -1610.88200992498037 Eh          -43834.32798 eV
Two Electron Energy:        654.53591804095129 Eh           17810.82781 eV

Virial components:
Potential Energy   :       -917.57116274178134 Eh          -24968.38071 eV
Kinetic Energy     :        456.75518243538176 Eh           12428.94039 eV
Virial Ratio       :          2.00889053485801

DFT components:
N(Alpha)           :       35.999889556951 electrons
N(Beta)            :       35.999889556951 electrons
N(Total)           :       71.999779113901 electrons
E(X)               :      -47.604593832325 Eh       
E(C)               :       -2.867080165566 Eh       
E(XC)              :      -50.471673997891 Eh       

---------------
SCF CONVERGENCE
---------------

  Last Energy change         ...    1.1138e-09  Tolerance :   1.0000e-08
  Last MAX-Density change    ...    2.6219e-05  Tolerance :   1.0000e-07
  Last RMS-Density change    ...    1.6960e-06  Tolerance :   5.0000e-09
  Last DIIS Error            ...    2.0236e-03  Tolerance :   5.0000e-07
  Last Orbital Gradient      ...    8.6961e-06  Tolerance :   1.0000e-05
  Last Orbital Rotation      ...    5.2442e-06  Tolerance :   1.0000e-05


----------------
ORBITAL ENERGIES
----------------

  NO   OCC          E(Eh)            E(eV) 
   0   2.0000     -19.175469      -521.7910 
   1   2.0000     -19.169129      -521.6185 
   2   2.0000     -19.147159      -521.0207 
   3   2.0000     -10.288250      -279.9575 
   4   2.0000     -10.196076      -277.4493 
   5   2.0000     -10.193085      -277.3679 
   6   2.0000     -10.192810      -277.3605 
   7   2.0000     -10.191314      -277.3198 
   8   2.0000     -10.174592      -276.8647 
   9   2.0000      -1.109475       -30.1903 
  10   2.0000      -1.021646       -27.8004 
  11   2.0000      -0.883842       -24.0506 
  12   2.0000      -0.803237       -21.8572 
  13   2.0000      -0.733619       -19.9628 
  14   2.0000      -0.725977       -19.7548 
  15   2.0000      -0.656626       -17.8677 
  16   2.0000      -0.610659       -16.6169 
  17   2.0000      -0.555157       -15.1066 
  18   2.0000      -0.531536       -14.4638 
  19   2.0000      -0.502797       -13.6818 
  20   2.0000      -0.471788       -12.8380 
  21   2.0000      -0.444662       -12.0999 
  22   2.0000      -0.435409       -11.8481 
  23   2.0000      -0.417448       -11.3593 
  24   2.0000      -0.413041       -11.2394 
  25   2.0000      -0.405324       -11.0294 
  26   2.0000      -0.393923       -10.7192 
  27   2.0000      -0.391303       -10.6479 
  28   2.0000      -0.385172       -10.4811 
  29   2.0000      -0.370751       -10.0886 
  30   2.0000      -0.358346        -9.7511 
  31   2.0000      -0.332095        -9.0368 
  32   2.0000      -0.323332        -8.7983 
  33   2.0000      -0.295076        -8.0294 
  34   2.0000      -0.260256        -7.0819 
  35   2.0000      -0.248415        -6.7597 
  36   0.0000      -0.003514        -0.0956 
  37   0.0000       0.040068         1.0903 
  38   0.0000       0.054526         1.4837 
  39   0.0000       0.075976         2.0674 
  40   0.0000       0.082262         2.2385 
  41   0.0000       0.108453         2.9512 
  42   0.0000       0.114113         3.1052 
  43   0.0000       0.122019         3.3203 
  44   0.0000       0.123649         3.3647 
  45   0.0000       0.139433         3.7942 
  46   0.0000       0.148018         4.0278 
*Only the first 10 virtual orbitals were printed.

                    ********************************
                    * MULLIKEN POPULATION ANALYSIS *
                    ********************************

-----------------------
MULLIKEN ATOMIC CHARGES
-----------------------
   0 C :    0.127486
   1 C :    0.119001
   2 H :    0.012618
   3 H :    0.019519
   4 H :    0.014370
   5 O :   -0.243784
   6 O :   -0.146713
   7 H :    0.173742
   8 O :   -0.276662
   9 C :   -0.093101
  10 C :   -0.120904
  11 C :    0.081274
  12 H :   -0.007669
  13 H :    0.007160
  14 H :    0.023458
  15 H :    0.024828
  16 C :    0.069379
  17 H :    0.160078
  18 H :    0.007957
  19 H :    0.041845
  20 H :    0.006117
Sum of atomic charges:   -0.0000000

--------------------------------
MULLIKEN REDUCED ORBITAL CHARGES
--------------------------------
  0 C s       :     2.912348  s :     2.912348
      pz      :     0.968650  p :     2.934158
      px      :     1.004967
      py      :     0.960542
      dz2     :     0.006364  d :     0.026007
      dxz     :     0.003801
      dyz     :     0.004434
      dx2y2   :     0.008035
      dxy     :     0.003373

  1 C s       :     3.073049  s :     3.073049
      pz      :     0.730067  p :     2.704437
      px      :     0.926060
      py      :     1.048310
      dz2     :     0.028383  d :     0.103512
      dxz     :     0.023258
      dyz     :     0.021749
      dx2y2   :     0.015620
      dxy     :     0.014502

  2 H s       :     0.963267  s :     0.963267
      pz      :     0.005195  p :     0.024115
      px      :     0.014392
      py      :     0.004528

  3 H s       :     0.957096  s :     0.957096
      pz      :     0.012607  p :     0.023385
      px      :     0.006081
      py      :     0.004698

  4 H s       :     0.962201  s :     0.962201
      pz      :     0.009744  p :     0.023430
      px      :     0.007069
      py      :     0.006617

  5 O s       :     3.852480  s :     3.852480
      pz      :     1.645481  p :     4.369771
      px      :     1.007417
      py      :     1.716874
      dz2     :     0.003764  d :     0.021532
      dxz     :     0.003944
      dyz     :     0.003184
      dx2y2   :     0.005967
      dxy     :     0.004673

  6 O s       :     3.782669  s :     3.782669
      pz      :     1.440402  p :     4.345703
      px      :     1.038586
      py      :     1.866715
      dz2     :     0.005816  d :     0.018341
      dxz     :     0.002651
      dyz     :     0.001724
      dx2y2   :     0.005082
      dxy     :     0.003069

  7 H s       :     0.760898  s :     0.760898
      pz      :     0.035187  p :     0.065359
      px      :     0.010414
      py      :     0.019758

  8 O s       :     3.715293  s :     3.715293
      pz      :     1.446117  p :     4.548780
      px      :     1.719253
      py      :     1.383410
      dz2     :     0.003666  d :     0.012588
      dxz     :     0.003032
      dyz     :     0.001284
      dx2y2   :     0.002437
      dxy     :     0.002170

  9 C s       :     3.093728  s :     3.093728
      pz      :     1.015593  p :     2.959978
      px      :     0.930111
      py      :     1.014274
      dz2     :     0.003793  d :     0.039395
      dxz     :     0.004334
      dyz     :     0.006228
      dx2y2   :     0.013463
      dxy     :     0.011578

 10 C s       :     3.194196  s :     3.194196
      pz      :     0.990365  p :     2.891279
      px      :     0.967763
      py      :     0.933152
      dz2     :     0.002967  d :     0.035428
      dxz     :     0.007432
      dyz     :     0.002536
      dx2y2   :     0.012417
      dxy     :     0.010075

 11 C s       :     2.923854  s :     2.923854
      pz      :     1.002744  p :     2.965891
      px      :     0.972736
      py      :     0.990411
      dz2     :     0.005757  d :     0.028981
      dxz     :     0.006671
      dyz     :     0.003576
      dx2y2   :     0.007685
      dxy     :     0.005292

 12 H s       :     0.984514  s :     0.984514
      pz      :     0.004853  p :     0.023155
      px      :     0.004406
      py      :     0.013896

 13 H s       :     0.969260  s :     0.969260
      pz      :     0.005188  p :     0.023580
      px      :     0.004669
      py      :     0.013723

 14 H s       :     0.953060  s :     0.953060
      pz      :     0.009365  p :     0.023482
      px      :     0.006743
      py      :     0.007374

 15 H s       :     0.951737  s :     0.951737
      pz      :     0.012445  p :     0.023435
      px      :     0.005361
      py      :     0.005629

 16 C s       :     2.925294  s :     2.925294
      pz      :     0.985901  p :     2.976834
      px      :     1.008852
      py      :     0.982081
      dz2     :     0.007043  d :     0.028493
      dxz     :     0.003292
      dyz     :     0.005679
      dx2y2   :     0.006930
      dxy     :     0.005549

 17 H s       :     0.771297  s :     0.771297
      pz      :     0.016305  p :     0.068625
      px      :     0.019638
      py      :     0.032682

 18 H s       :     0.968234  s :     0.968234
      pz      :     0.005457  p :     0.023809
      px      :     0.013248
      py      :     0.005104

 19 H s       :     0.934168  s :     0.934168
      pz      :     0.008406  p :     0.023987
      px      :     0.009050
      py      :     0.006531

 20 H s       :     0.969938  s :     0.969938
      pz      :     0.012818  p :     0.023945
      px      :     0.006011
      py      :     0.005116



                     *******************************
                     * LOEWDIN POPULATION ANALYSIS *
                     *******************************

----------------------
LOEWDIN ATOMIC CHARGES
----------------------
   0 C :   -0.056052
   1 C :    0.085767
   2 H :    0.030387
   3 H :    0.031719
   4 H :    0.029068
   5 O :   -0.096465
   6 O :   -0.057694
   7 H :    0.055522
   8 O :   -0.112698
   9 C :   -0.058929
  10 C :   -0.025892
  11 C :   -0.053534
  12 H :    0.025578
  13 H :    0.024454
  14 H :    0.036087
  15 H :    0.036688
  16 C :   -0.053112
  17 H :    0.068653
  18 H :    0.029817
  19 H :    0.036897
  20 H :    0.023737

-------------------------------
LOEWDIN REDUCED ORBITAL CHARGES
-------------------------------
  0 C s       :     2.842452  s :     2.842452
      pz      :     1.059736  p :     3.144177
      px      :     1.074197
      py      :     1.010244
      dz2     :     0.016757  d :     0.069424
      dxz     :     0.009512
      dyz     :     0.011827
      dx2y2   :     0.022379
      dxy     :     0.008948

  1 C s       :     2.862399  s :     2.862399
      pz      :     0.823927  p :     2.826868
      px      :     0.980085
      py      :     1.022856
      dz2     :     0.063946  d :     0.224966
      dxz     :     0.050112
      dyz     :     0.042957
      dx2y2   :     0.038626
      dxy     :     0.029325

  2 H s       :     0.901431  s :     0.901431
      pz      :     0.012028  p :     0.068182
      px      :     0.041899
      py      :     0.014256

  3 H s       :     0.902685  s :     0.902685
      pz      :     0.035702  p :     0.065596
      px      :     0.015285
      py      :     0.014609

  4 H s       :     0.904796  s :     0.904796
      pz      :     0.026748  p :     0.066135
      px      :     0.018883
      py      :     0.020505

  5 O s       :     3.583464  s :     3.583464
      pz      :     1.676553  p :     4.475510
      px      :     1.065157
      py      :     1.733801
      dz2     :     0.006205  d :     0.037490
      dxz     :     0.007104
      dyz     :     0.004858
      dx2y2   :     0.010605
      dxy     :     0.008718

  6 O s       :     3.557991  s :     3.557991
      pz      :     1.511510  p :     4.467395
      px      :     1.101783
      py      :     1.854102
      dz2     :     0.011064  d :     0.032308
      dxz     :     0.004936
      dyz     :     0.002305
      dx2y2   :     0.008742
      dxy     :     0.005262

  7 H s       :     0.765121  s :     0.765121
      pz      :     0.097013  p :     0.179357
      px      :     0.028004
      py      :     0.054341

  8 O s       :     3.446110  s :     3.446110
      pz      :     1.481815  p :     4.642332
      px      :     1.711768
      py      :     1.448749
      dz2     :     0.007370  d :     0.024256
      dxz     :     0.005217
      dyz     :     0.002983
      dx2y2   :     0.004799
      dxy     :     0.003886

  9 C s       :     2.874790  s :     2.874790
      pz      :     0.997425  p :     3.083857
      px      :     1.042924
      py      :     1.043509
      dz2     :     0.008465  d :     0.100282
      dxz     :     0.009604
      dyz     :     0.012279
      dx2y2   :     0.038082
      dxy     :     0.031851

 10 C s       :     2.872157  s :     2.872157
      pz      :     0.967837  p :     3.064677
      px      :     1.042281
      py      :     1.054559
      dz2     :     0.006597  d :     0.089057
      dxz     :     0.014538
      dyz     :     0.005552
      dx2y2   :     0.035315
      dxy     :     0.027056

 11 C s       :     2.832929  s :     2.832929
      pz      :     1.061193  p :     3.147159
      px      :     1.024316
      py      :     1.061650
      dz2     :     0.015096  d :     0.073445
      dxz     :     0.016409
      dyz     :     0.008717
      dx2y2   :     0.020663
      dxy     :     0.012560

 12 H s       :     0.905241  s :     0.905241
      pz      :     0.015390  p :     0.069181
      px      :     0.013661
      py      :     0.040131

 13 H s       :     0.910036  s :     0.910036
      pz      :     0.012732  p :     0.065510
      px      :     0.013565
      py      :     0.039212

 14 H s       :     0.900067  s :     0.900067
      pz      :     0.024761  p :     0.063846
      px      :     0.019581
      py      :     0.019504

 15 H s       :     0.899471  s :     0.899471
      pz      :     0.034326  p :     0.063841
      px      :     0.015496
      py      :     0.014019

 16 C s       :     2.832008  s :     2.832008
      pz      :     1.052024  p :     3.148085
      px      :     1.070702
      py      :     1.025359
      dz2     :     0.018262  d :     0.073018
      dxz     :     0.008195
      dyz     :     0.013801
      dx2y2   :     0.018880
      dxy     :     0.013880

 17 H s       :     0.748682  s :     0.748682
      pz      :     0.042035  p :     0.182666
      px      :     0.052682
      py      :     0.087949

 18 H s       :     0.903658  s :     0.903658
      pz      :     0.013349  p :     0.066525
      px      :     0.037929
      py      :     0.015247

 19 H s       :     0.895831  s :     0.895831
      pz      :     0.022640  p :     0.067272
      px      :     0.024610
      py      :     0.020022

 20 H s       :     0.911324  s :     0.911324
      pz      :     0.036203  p :     0.064939
      px      :     0.014188
      py      :     0.014548



                      *****************************
                      * MAYER POPULATION ANALYSIS *
                      *****************************

  NA   - Mulliken gross atomic population
  ZA   - Total nuclear charge
  QA   - Mulliken gross atomic charge
  VA   - Mayer's total valence
  BVA  - Mayer's bonded valence
  FA   - Mayer's free valence

  ATOM       NA         ZA         QA         VA         BVA        FA
  0 C      5.8725     6.0000     0.1275     3.9275     3.9275    -0.0000
  1 C      5.8810     6.0000     0.1190     4.2745     4.2745    -0.0000
  2 H      0.9874     1.0000     0.0126     1.0339     1.0339    -0.0000
  3 H      0.9805     1.0000     0.0195     0.9984     0.9984    -0.0000
  4 H      0.9856     1.0000     0.0144     0.9996     0.9996     0.0000
  5 O      8.2438     8.0000    -0.2438     1.9631     1.9631    -0.0000
  6 O      8.1467     8.0000    -0.1467     2.0016     2.0016    -0.0000
  7 H      0.8263     1.0000     0.1737     1.0393     1.0393    -0.0000
  8 O      8.2767     8.0000    -0.2767     2.1279     2.1279    -0.0000
  9 C      6.0931     6.0000    -0.0931     4.0699     4.0699    -0.0000
 10 C      6.1209     6.0000    -0.1209     4.1167     4.1167     0.0000
 11 C      5.9187     6.0000     0.0813     3.9255     3.9255    -0.0000
 12 H      1.0077     1.0000    -0.0077     0.9999     0.9999     0.0000
 13 H      0.9928     1.0000     0.0072     0.9980     0.9980    -0.0000
 14 H      0.9765     1.0000     0.0235     0.9855     0.9855     0.0000
 15 H      0.9752     1.0000     0.0248     0.9855     0.9855    -0.0000
 16 C      5.9306     6.0000     0.0694     3.9454     3.9454    -0.0000
 17 H      0.8399     1.0000     0.1601     1.0440     1.0440    -0.0000
 18 H      0.9920     1.0000     0.0080     1.0024     1.0024    -0.0000
 19 H      0.9582     1.0000     0.0418     1.0102     1.0102    -0.0000
 20 H      0.9939     1.0000     0.0061     0.9927     0.9927    -0.0000

  Mayer bond orders larger than 0.100000
B(  0-C ,  1-C ) :   1.1002 B(  0-C ,  2-H ) :   0.9291 B(  0-C ,  3-H ) :   0.9389 
B(  0-C ,  4-H ) :   0.9435 B(  1-C ,  5-O ) :   0.9634 B(  1-C ,  8-O ) :   1.0617 
B(  1-C ,  9-C ) :   0.9377 B(  5-O ,  6-O ) :   0.9381 B(  6-O ,  7-H ) :   0.9530 
B(  8-O , 17-H ) :   0.9636 B(  9-C , 10-C ) :   1.9497 B(  9-C , 16-C ) :   1.0675 
B( 10-C , 11-C ) :   1.0809 B( 10-C , 12-H ) :   0.9272 B( 11-C , 13-H ) :   0.9608 
B( 11-C , 14-H ) :   0.9455 B( 11-C , 15-H ) :   0.9461 B( 16-C , 18-H ) :   0.9453 
B( 16-C , 19-H ) :   0.9459 B( 16-C , 20-H ) :   0.9381 

-------
TIMINGS
-------

Total SCF time: 0 days 0 hours 0 min 17 sec 

Total time                  ....      17.441 sec
Sum of individual times     ....      16.571 sec  ( 95.0%)

SCF preparation             ....       0.205 sec  (  1.2%)
Fock matrix formation       ....      15.971 sec  ( 91.6%)
  Startup                   ....       0.006 sec  (  0.0% of F)
  Split-RI-J                ....       1.529 sec  (  9.6% of F)
  Chain of spheres X        ....      12.349 sec  ( 77.3% of F)
  XC integration            ....       2.714 sec  ( 17.0% of F)
    XC Preparation          ....       0.000 sec  (  0.0% of XC)
    Basis function eval.    ....       0.803 sec  ( 29.6% of XC)
    Density eval.           ....       0.503 sec  ( 18.5% of XC)
    XC-Functional eval.     ....       0.124 sec  (  4.6% of XC)
    XC-Potential eval.      ....       0.532 sec  ( 19.6% of XC)
Diagonalization             ....       0.000 sec  (  0.0%)
Density matrix formation    ....       0.046 sec  (  0.3%)
Total Energy calculation    ....       0.022 sec  (  0.1%)
Population analysis         ....       0.028 sec  (  0.2%)
Orbital Transformation      ....       0.031 sec  (  0.2%)
Orbital Orthonormalization  ....       0.000 sec  (  0.0%)
DIIS solution               ....       0.150 sec  (  0.9%)
SOSCF solution              ....       0.118 sec  (  0.7%)
Finished LeanSCF after  17.5 sec

Maximum memory used throughout the entire LEANSCF-calculation: 17.4 MB


-------------------------------------------------------------------------------
                          DFT DISPERSION CORRECTION                            
                                                                               
                              DFTD3 V3.1  Rev 1                                
                          USING Becke-Johnson damping                          
-------------------------------------------------------------------------------
The B3LYP functional is recognized
Active option DFTDOPT                   ...         4   

molecular C6(AA) [au] = 3324.178656 


            DFT-D V3
 parameters
 s6 scaling factor         :     1.0000 
 a1 scaling factor         :     0.3981 
 s8 scaling factor         :     1.9889 
 a2 scaling factor         :     4.4211 
 ad hoc parameters k1-k3   :    16.0000     1.3333    -4.0000 

 Edisp/kcal,au: -19.663260255956  -0.031335396470 
 E6   /kcal   :  -9.624092860 
 E8   /kcal   : -10.039167396 
 % E8         :  51.055457057 

-------------------------   ----------------
Dispersion correction           -0.031335396
-------------------------   ----------------


-------------------------   --------------------
FINAL SINGLE POINT ENERGY      -460.847315702870
-------------------------   --------------------



           ************************************************************
           *        Program running with 6 parallel MPI-processes     *
           *              working on a common directory               *
           ************************************************************
------------------------------------------------------------------------------
                         ORCA SCF GRADIENT CALCULATION
------------------------------------------------------------------------------

Nuc. rep. gradient        (SHARK) ... done (  0.0 sec)
HCore & Overlap gradient  (SHARK) ... done (  0.1 sec)
Split-RIJ-J gradient      (SHARK) ... done (  0.5 sec)
done (  8.3 sec)
XC gradient                       ... done (  1.8 sec)
Dispersion correction             ... done (  0.0 sec)

-------------------
DISPERSION GRADIENT
-------------------

   1   C   :   -0.000233480   -0.000560044    0.000020551
   2   C   :   -0.000303885   -0.000131043   -0.000029476
   3   H   :   -0.000171876   -0.000278263    0.000001267
   4   H   :   -0.000092719   -0.000345978    0.000153328
   5   H   :   -0.000094540   -0.000368360   -0.000104069
   6   O   :   -0.000451444    0.000144131    0.000279296
   7   O   :   -0.000487236    0.000137435    0.000235936
   8   H   :   -0.000328350    0.000109019    0.000038838
   9   O   :   -0.000338126    0.000033869   -0.000418066
  10   C   :    0.000107729    0.000235047   -0.000028075
  11   C   :    0.000708216   -0.000267485    0.000150750
  12   C   :    0.000541965   -0.000161046    0.000095012
  13   H   :    0.000171209   -0.000232938    0.000067198
  14   H   :    0.000296961    0.000020031    0.000035639
  15   H   :    0.000244484   -0.000087071   -0.000030669
  16   H   :    0.000224738   -0.000063365    0.000108019
  17   C   :    0.000139076    0.000623487   -0.000096035
  18   H   :   -0.000128675    0.000164609   -0.000338778
  19   H   :    0.000095893    0.000321391   -0.000021594
  20   H   :    0.000047393    0.000381983    0.000068462
  21   H   :    0.000052668    0.000324590   -0.000187536

Difference to translation invariance:
           :    0.0000000000    0.0000000000   -0.0000000000

Difference to rotation invariance:
           :    0.0000000000    0.0000000000    0.0000000000

Norm of the Dispersion gradient    ...    0.0020514962
RMS gradient                       ...    0.0002584642
MAX gradient                       ...    0.0007082158

------------------
CARTESIAN GRADIENT
------------------

   1   C   :   -0.000099592   -0.000062883   -0.000124801
   2   C   :   -0.000087476   -0.000066786   -0.000091343
   3   H   :    0.000014976   -0.000004808    0.000030775
   4   H   :   -0.000014561    0.000038956    0.000033698
   5   H   :    0.000029729    0.000028819    0.000046377
   6   O   :    0.000043143   -0.000056166    0.000001932
   7   O   :   -0.000025500   -0.000100540   -0.000019453
   8   H   :   -0.000013909    0.000024030    0.000031351
   9   O   :    0.000126954    0.000071779    0.000155778
  10   C   :   -0.000070302   -0.000003945    0.000022635
  11   C   :    0.000084335    0.000173560    0.000010923
  12   C   :   -0.000051115   -0.000052024   -0.000112622
  13   H   :    0.000024766   -0.000037436    0.000028734
  14   H   :   -0.000036805   -0.000006187    0.000110320
  15   H   :   -0.000020889    0.000005687    0.000054243
  16   H   :    0.000025291    0.000013964   -0.000049941
  17   C   :   -0.000128824    0.000029181    0.000003065
  18   H   :    0.000005887    0.000004084   -0.000003189
  19   H   :   -0.000007477   -0.000033805   -0.000144236
  20   H   :    0.000026388    0.000006410   -0.000026446
  21   H   :    0.000174981    0.000028113    0.000042200

Difference to translation invariance:
           :   -0.0000000001   -0.0000000000    0.0000000001

Difference to rotation invariance:
           :    0.0000877510   -0.0000855701    0.0003229516

Norm of the Cartesian gradient     ...    0.0005285781
RMS gradient                       ...    0.0000665946
MAX gradient                       ...    0.0001749806

-------
TIMINGS
-------

Total SCF gradient time     ....       10.759 sec

Densities                   ....       0.001 sec  (  0.0%)
One electron gradient       ....       0.094 sec  (  0.9%)
RI-J Coulomb gradient       ....       0.479 sec  (  4.5%)
COSX gradient               ....       8.348 sec  ( 77.6%)
XC gradient                 ....       1.788 sec  ( 16.6%)

Maximum memory used throughout the entire SCFGRAD-calculation: 31.1 MB


           ************************************************************
           *        Program running with 6 parallel MPI-processes     *
           *              working on a common directory               *
           ************************************************************

------------------------------------------------------------------------------
                              ORCA PROPERTY CALCULATIONS
------------------------------------------------------------------------------

GBWName                                 ... orca.gbw
Number of atoms                         ...     21
Number of basis functions               ...    186
Max core memory                         ...   4096 MB

Electric properties:
Dipole moment                           ... YES
Quadrupole moment                       ...  NO
Static polarizability (Dipole/Dipole)   ...  NO
Static polarizability (Dipole/Quad.)    ...  NO
Static polarizability (Quad./Quad.)     ...  NO
Static polarizability (Velocity)        ...  NO
Static hyperpolarizability              ...  NO

Atomic electric properties:
Dipole moment                           ...  NO
Quadrupole moment                       ...  NO
Static polarizability                   ...  NO

Choice of electric origin               ... Center of mass
Position of electric origin             ...    -0.195582     0.030906     0.170622

General magnetic properties:
Magnetizability                         ...  NO

EPR properties:
g-Tensor (aka g-matrix)                 ...  NO
Zero-Field splitting spin-orbit         ...  NO
Zero-field splitting spin-spin          ...  NO
Hyperfine couplings                     ...  NO (   0 nuclei)
Quadrupole couplings                    ...  NO (   0 nuclei)
Contact density                         ...  NO (   0 nuclei)

NMR properties:
Chemical shifts                         ...  NO (   0 nuclei)
Spin-rotation constants                 ...  NO (   0 nuclei)
Spin-spin couplings                     ...  NO (   0 nuclei,    0 pairs)

Choice of magnetic origin               ... GIAO
Position of magnetic origin             ...     0.000000     0.000000     0.000000

Properties with geometric perturbations:
SCF Hessian                             ...  NO
IR spectrum                             ...  NO
VCD spectrum                            ...  NO
X-ray spectroscopy properties:
SCF XES/XAS/RIXS spectra                ...  NO

SCF SOC stabilization energy            ...  NO
Diagonal Born-Oppenheimer correction    ...  NO

-------------
DIPOLE MOMENT
-------------

Method             : SCF
Type of density    : Electron Density
Multiplicity       :   1
Irrep              :   0
Energy             :  -460.8159803063996378 Eh
Basis              : AO
                                X                 Y                 Z
Electronic contribution:     -8.428901561       1.077661106       0.800407243
Nuclear contribution   :      9.265553914      -0.876342504      -1.490227458
                        -----------------------------------------
Total Dipole Moment    :      0.836652353       0.201318602      -0.689820214
                        -----------------------------------------
Magnitude (a.u.)       :      1.102890868
Magnitude (Debye)      :      2.803325803



--------------------
Rotational spectrum 
--------------------
 
Rotational constants in cm-1:             0.092355             0.033944             0.030715 
Rotational constants in MHz :          2768.721800          1017.622428           920.808781 

Dipole components along the rotational axes: 
x,y,z [a.u.] :     0.851786    -0.281107    -0.641722 
x,y,z [Debye]:     2.165068    -0.714518    -1.631128 

 

Dipole moment calculation done in   0.0 sec 

Maximum memory used throughout the entire PROP-calculation: 9.4 MB

--------------------------------
SUGGESTED CITATIONS FOR THIS RUN
--------------------------------

Below you find a list of papers that are relevant to this ORCA run
We neither can nor want to force you to cite these papers, but we appreciate if you do
You receive ORCA, which is the product of decades of hard work by many enthusiastic individuals, for free
The only thing we kindly ask in return is that you cite our papers,
We deeply appreciate it, if you show your appreciation for ORCA by not just citing the generic ORCA reference.

Please note that relegating all ORCA citations to the supporting information does *not* help us.
SI sections are not indexed - citations you put there will not count into any citation statistics
But we need these citations in order to attract the funding resources that allow us to do what we are doing

Therefore, if you are a happy ORCA user, please consider citing a few of the papers listed below in the main body of your paper

In addition to the list printed below, the program has created the file orca.bibtex that contains the list in bibtex format
You can import this file easily into all common literature databanks and citation aid programs


List of essential papers. We consider these as the minimum necessary citations

  1. Neese, F.
     Software update: the ORCA program system, version 6.0
     WIRES Comput. Molec. Sci. 2025 15(1), e70019
     doi.org/10.1002/wcms.7019

List of papers to cite with high priority. The work reported in these papers was absolutely
necessary for this run to complete.
Our perspective: the developers of density functionals and basis sets usually get cited in chemistry papers
Good! But without the algorithms to do something with them, the functionals or basis sets would not do anything.
Hence, in our opinion, the algorithm design and method developments papers are equally worthy of getting cited

  1. Neese, F.
     An improvement of the resolution of the identity approximation for the formation of the Coulomb matrix
     J. Comp. Chem. 2003 24(14), 1740-1747
     doi.org/10.1002/jcc.10318
  2. Neese, F.; Wennmohs, F.; Hansen, A.; Becker, U.
     Efficient, approximate and parallel Hartree-Fock and hybrid DFT calculations. A 'chain-of-spheres' algorithm for the Hartree-Fock exchange
     Chem. Phys. 2009 356(1-3), 98-109
     doi.org/10.1016/j.chemphys.2008.10.036
  3. Grimme, S.; Antony, J.; Ehrlich, S.; Krieg, H.
     A consistent and accurate ab initio parametrization of density functional dispersion correction (DFT-D) for the 94 elements H-Pu
     J. Chem. Phys. 2010 132 , 154104
     doi.org/10.1063/1.3382344
  4. Grimme, S.; Ehrlich, S.; Goerigk, L.
     Effect of the damping function in dispersion corrected density functional theory
     J. Comput. Chem. 2011 32(7), 1456-1465
     doi.org/10.1002/jcc.21759
  5. Helmich-Paris, B.; de Souza, B.; Neese, F.; Izsák, R.
     An improved chain of spheres for exchange algorithm
     J. Chem. Phys. 2021 155(10), 104109
     doi.org/10.1063/5.0058766
  6. Neese, F.
     The SHARK Integral Generation and Digestion System
     J. Comp. Chem. 2022 44(3), 381
     doi.org/10.1002/jcc.26942

List of suggested additional citations. These are papers that are important in the 'surrounding' of 
of this run, or papers that preceded the highly important papers. If you like your results we are grateful for a citation.

  1. Izsak, R.; Neese, F.
     An overlap fitted chain of spheres exchange method
     J. Chem. Phys. 2011 135 , 144105
     doi.org/10.1063/1.3646921
  2. Izsak, R.; Hansen, A.; Neese, F.
     The resolution of identity and chain of spheres approximations for the LPNO-CCSD singles Fock term
     Molec. Phys. 2012 110 , 2413-2417
     doi.org/10.1080/00268976.2012.687466
  3. Neese, F.
     The ORCA program system
     WIRES Comput. Molec. Sci. 2012 2(1), 73-78
     doi.org/10.1002/wcms.81
  4. Izsak, R.; Neese, F.; Klopper, W.
     Robust fitting techniques in the chain of spheres approximation to the Fock exchange: The role of the complementary space
     J. Chem. Phys. 2013 139 , 
     doi.org/10.1063/1.4819264
  5. Neese, F.
     Software update: the ORCA program system, version 4.0
     WIRES Comput. Molec. Sci. 2018 8(1), 1-6
     doi.org/10.1002/wcms.1327
  6. Neese, F.; Wennmohs, F.; Becker, U.; Riplinger, C.
     The ORCA quantum chemistry program package
     J. Chem. Phys. 2020 152(22), 224108
     doi.org/10.1063/5.0004608
  7. Neese, F.
     Software update: The ORCA program system—Version 5.0
     WIRES Comput. Molec. Sci. 2022 12(1), e1606
     doi.org/10.1002/wcms.1606

List of optional additional citations

  1. Neese, F.
     Approximate second-order SCF convergence for spin unrestricted wavefunctions
     Chem. Phys. Lett. 2000 325(1-3), 93-98
     doi.org/10.1016/s0009-2614(00)00662-x

Timings for individual modules:

Sum of individual times          ...       32.326 sec (=   0.539 min)
Startup calculation              ...        1.892 sec (=   0.032 min)   5.9 %
SCF iterations                   ...       18.598 sec (=   0.310 min)  57.5 %
Property calculations            ...        0.459 sec (=   0.008 min)   1.4 %
SCF Gradient evaluation          ...       11.377 sec (=   0.190 min)  35.2 %
                             ****ORCA TERMINATED NORMALLY****
TOTAL RUN TIME: 0 days 0 hours 0 minutes 32 seconds 918 msec
