
                                 *****************
                                 * O   R   C   A *
                                 *****************

                                            #,                                       
                                            ###                                      
                                            ####                                     
                                            #####                                    
                                            ######                                   
                                           ########,                                 
                                     ,,################,,,,,                         
                               ,,#################################,,                 
                          ,,##########################################,,             
                       ,#########################################, ''#####,          
                    ,#############################################,,   '####,        
                  ,##################################################,,,,####,       
                ,###########''''           ''''###############################       
              ,#####''   ,,,,##########,,,,          '''####'''          '####       
            ,##' ,,,,###########################,,,                        '##       
           ' ,,###''''                  '''############,,,                           
         ,,##''                                '''############,,,,        ,,,,,,###''
      ,#''                                            '''#######################'''  
     '                                                          ''''####''''         
             ,#######,   #######,   ,#######,      ##                                
            ,#'     '#,  ##    ##  ,#'     '#,    #''#        ,####,    ,#,          
            ##       ##  ##   ,#'  ##            #'  '#       #'       ,# #          
            ##       ##  #######   ##           ,######,      #####,      #          
            '#,     ,#'  ##    ##  '#,     ,#' ,#      #,     #,   #      #          
             '#######'   ##     ##  '#######'  #'      '#     '####' #    #          



                #########################################################
                #                        -***-                          #
                #          Department of theory and spectroscopy        #
                #                                                       #
                #                      Frank Neese                      #
                #                                                       #
                #     Directorship, Architecture, Infrastructure        #
                #                    SHARK, DRIVERS                     #
                #        Core code/Algorithms in most modules           #
                #                                                       #
                #        Max Planck Institute fuer Kohlenforschung      #
                #                Kaiser Wilhelm Platz 1                 #
                #                 D-45470 Muelheim/Ruhr                 #
                #                      Germany                          #
                #                                                       #
                #                  All rights reserved                  #
                #                        -***-                          #
                #########################################################


                         Program Version 6.1.0  -  RELEASE   -
                                (GIT: $679e74b$)
                          ($2025-06-10 18:02:51 +0200$)


 With contributions from (in alphabetic order):
[Max-Planck-Institut fuer Kohlenforschung]                               
  Daniel Aravena         : Magnetic Suceptibility                        
  Michael Atanasov       : Ab Initio Ligand Field Theory (pilot matlab implementation)
  Alexander A. Auer      : GIAO ZORA, VPT2 properties, NMR spectrum      
  Ute Becker             : All parallelization in ORCA, NUMFREQ, NUMCALC 
  Giovanni Bistoni       : ED, misc. LED, open-shell LED, HFLD           
  Dmytro Bykov           : pre 5.0 version of the SCF Hessian            
  Marcos Casanova-Páez   : Triplet and SCS-CIS(D). UHF-(DLPNO)-IP/EA/STEOM-CCSD. UHF-CVS-IP/STEOM-CCSD   
  Vijay G. Chilkuri      : MRCI spin determinant printing, contributions to CSF-ICE 
  Pauline Colinet        : FMM embedding                                 
  Dipayan Datta          : RHF DLPNO-CCSD density                        
  Achintya Kumar Dutta   : EOM-CC, STEOM-CC                              
  Nicolas Foglia         : Exact transition moments, OPA infrastructure, MCD improvements    
  Dmitry Ganyushin       : Spin-Orbit,Spin-Spin,Magnetic field MRCI      
  Miquel Garcia-Rates    : C-PCM and meta-GGA Hessian, CCSD/C-PCM, Gaussian charge scheme 
  Tiago L. C. Gouveia    : GS-ROHF, GS-ROCIS                             
  Yang Guo               : DLPNO-NEVPT2, F12-NEVPT2, CIM, IAO-localization        
  Andreas Hansen         : Spin unrestricted coupled pair/coupled cluster methods 
  Ingolf Harden          : AUTO-CI MPn and infrastructure                
  Benjamin Helmich-Paris : MC-RPA, TRAH-(SCF,CASSCF), AVAS, COSX integrals, SCF dyn. polar., MC-PDFT, srDFT 
  Lee Huntington         : MR-EOM, pCC                                   
  Robert Izsak           : Overlap fitted RIJCOSX, COSX-SCS-MP3, EOM     
  Riya Kayal             : Wick's Theorem for AUTO-CI, AUTO-CI UHF-CCSDT 
  Emily Kempfer          : AUTO-CI RHF CISDT and CCSDT, approximate NEVPT4
  Christian Kollmar      : KDIIS, OOCD, Brueckner-CCSD(T), CCSD density, CASPT2, CASPT2-K, improved NEVPT2 
  Axel Koslowski         : Symmetry handling                             
  Simone Kossmann        : meta-GGA functionals, TD-DFT gradient, OOMP2, (MP2 Hessian; deprecated post 5.0) 
  Lucas Lang             : DCDCAS, Hyperfine gauge corrections, ICE-SOC+SSC
  Marvin Lechner         : AUTO-CI (C++ implementation), FIC-MRCC        
  Spencer Leger          : CASSCF response                               
  Dagmar Lenk            : GEPOL surface, SMD, ORCA-2-JSON               
  Dimitrios Liakos       : Extrapolation schemes; Compound Job, Property file
  Dimitrios Manganas     : Further ROCIS development; embedding schemes. LFT, Crystal Embedding 
  Dimitrios Pantazis     : SARC Basis sets                               
  Anastasios Papadopoulos: AUTO-CI, single reference methods and gradients 
  Taras Petrenko         : pre 6.0 DFT Hessian and TD-DFT gradient,  ECA, NRVS 
  Petra Pikulova         : Analytic Raman intensities                    
  Peter Pinski           : DLPNO-MP2, DLPNO-MP2 Gradient                 
  Shashank Vittal Rao    : ES-AILFT, MagRelax                            
  Christoph Reimann      : Effective Core Potentials                     
  Marius Retegan         : Local ZFS, SOC                                
  Christoph Riplinger    : Optimizer, TS searches, QM/MM, DLPNO-CCSD(T), (RO)-DLPNO pert. Triples 
  Michael Roemelt        : Original ROCIS implementation, recursive CI coupling coefficients
  Masaaki Saitow         : Open-shell DLPNO-CCSD energy and density      
  Barbara Sandhoefer     : DKH picture change effects                    
  Yorick L. A. Schmerwitz: GMF and freeze-and-release deltaSCF, NEB S-IDPP initial path                    
  Kantharuban Sivalingam : CASSCF convergence/infrastructure, NEVPT2, NEVPT3, NEVPT4(SD), FIC-MRCI and CEPA variants
  Bernardo de Souza      : ESD, SOC TD-DFT                               
  Georgi L. Stoychev     : AutoAux, RI-MP2 NMR, DLPNO-MP2 response, X2C  
  Van Anh Tran           : RI-MP2 g-tensors                              
  Willem Van den Heuvel  : Paramagnetic NMR                              
  Zikuan Wang            : NOTCH, Electric field optimization            
  Frank Wennmohs         : Technical directorship and infrastructure     
  Hang Xu                : AUTO-CI-Response properties                   
                                                                         
[FACCTs GmbH]                                                            
  Markus Bursch, Nicolas Foglia, Miquel Garcia-Rates, Ingolf Harden, Hagen Neugebauer, Anastasios Papadopoulos, 
  Christoph Riplinger, Bernardo de Souza, Georgi L. Stoychev                                                    
                                                                 
  APM, various basis sets, CI-OPT, improved COSX, DLPNO-Multilevel,           
  DOCKER, DRACO, updates on ESD, Fragmentator, GOAT, IRC, LR-CPCM, L-BFGS, MBIS, meta-GGA TD-DFT gradient, ML-optimized integration grids, 
  MM, NACMEs, nearIR, NEB, NEB-TS, NL-DFT gradient (VV10), 2- and 3-layer-ONIOM, interface openCOSMO-RS, QMMM,   
  Crystal-QMMM, RESP, rigid body optimization, SF, symmetry and pop. for TD-DFT, various functionals, SOLVATOR                                   
                                                                         
[Other institutions]                                                     
  V. Asgeirsson          : NEB                                           
  Christoph Bannwarth    : sTDA-DFT, sTD-DFT, PBEh-3c, B97-3c, D3        
  Giovanni Bistoni       : ETS/NOCV, ADLD/ADEX, COVALED                  
  Martin Brehm           : Molecular dynamics                            
  Ronald Cardenas        : ETS/NOCV                                      
  Martina Colucci        : COVALED                                       
  Sebastian Ehlert       : rSCAN, r2SCAN, r2SCAN-3c, D4, dhf basis sets  
  Marvin Friede          : D4 for Fr, Ra, Ac-Lr                          
  Lars Goerigk           : TD-DFT with DH, B97 family of functionals     
  Stefan Grimme          : VdW corrections, initial TS optimization, DFT functionals, gCP, sTDA/sTD-DF 
  Waldemar Hujo          : DFT-NL                                        
  H. Jonsson             : NEB                                           
  Holger Kruse           : gCP                                           
  Marcel Mueller         : wB97X-3c, vDZP basis set                      
  Hagen Neugebauer       : wr2SCAN, Native XTB                           
  Gianluca Regni         : ADLD/ADEX                                     
  Tobias Risthaus        : pre 6.0 range-separated hybrid DFT and stability analysis
  Lukas Wittmann         : regularized MP2, r2SCAN double-hybrids, wr2SCAN        
                                                                         
We gratefully acknowledge several colleagues who have allowed us to      
interface, adapt or use parts of their codes:                            
  Ed Valeev, F. Pavosevic, A. Kumar             : LibInt (2-el integral package), F12 methods 
  Garnet Chan, S. Sharma, J. Yang, R. Olivares  : DMRG                   
  Ulf Ekstrom                                   : XCFun DFT Library      
  Mihaly Kallay                                 : mrcc  (arbitrary order and MRCC methods)
  Frank Weinhold                                : gennbo (NPA and NBO analysis)           
  Simon Mueller                                 : openCOSMO-RS                            
  Christopher J. Cramer and Donald G. Truhlar   : smd solvation model                     
  S Lehtola, MJT Oliveira, MAL Marques          : LibXC Library                           
  Liviu Ungur et al                             : ANISO software                          


 Your calculation uses the libint2 library for the computation of 2-el integrals
 For citations please refer to: http://libint.valeyev.net

 Your ORCA version has been built with support for libXC version: 7.0.0
 For citations please refer to: https://libxc.gitlab.io

 This ORCA versions uses:
   CBLAS   interface :  Fast vector & matrix operations
   LAPACKE interface :  Fast linear algebra routines
   SCALAPACK package :  Parallel linear algebra routines
   Shared memory     :  Shared parallel matrices
   BLAS/LAPACK       :  OpenBLAS 0.3.29  USE64BITINT DYNAMIC_ARCH NO_AFFINITY Zen SINGLE_THREADED
        Core in use  :  Zen
   Copyright (c) 2011-2014, The OpenBLAS Project


  ***********************************
  * Starting time: Wed Sep 10 13:38:59 2025
  * Host name:     wyk-Server
  * Process ID:    2312089
  * Working dir.:  /home/wyk/Documents/code/openQDC/MGMR/singlepointcalc/111/react
  ***********************************

Your calculation utilizes the atom-pairwise dispersion correction
with the Becke-Johnson damping scheme (D3BJ)


Warning: RI is on but no J-basis has been assigned. Assigning Def2/J (nothing to worry about!)
================================================================================

----- Orbital basis set information -----
Your calculation utilizes the basis: def2-SVP
   F. Weigend and R. Ahlrichs, Phys. Chem. Chem. Phys. 7, 3297 (2005).

----- AuxJ basis set information -----
Your calculation utilizes the auxiliary basis: def2/J
   H-Rn: F. Weigend, Phys. Chem. Chem. Phys. 8, 1057 (2006).
   Fr-Lr: K. Eichkorn, F. Weigend, O. Treutler, R. Ahlrichs; Theor. Chem. Acc. 97, 119 (1997).

================================================================================
                                        WARNINGS
                       Please study these warnings very carefully!
================================================================================


================================================================================
                                       INPUT FILE
================================================================================
NAME = orca.inp
|  1> ! B3LYP def2-SVP d3 EnGrad 
|  2> %pal nprocs 6 end 
|  3> *xyz 0 1 
|  4> C   -1.13239063125868 0.66840504336711 2.4744138e-07
|  5> H   -1.13401781897039 1.24305245891866 0.93189144774455
|  6> H   -1.13401747814901 1.24305225393014 -0.93189096566432
|  7> C   -1.13239288849846 -0.66840488752909 3.6619639e-07
|  8> H   -1.13402099504342 -1.24305247181735 -0.93189080982344
|  9> H   -1.13402074469925 -1.24305277057012 0.93189129810283
| 10> F   1.8714964110567 1.24921764e-06 -2.44498685e-06
| 11> H   0.93851814556251 1.24483e-07 -1.3901055e-07
| 12> *
| 13> 
| 14>                          ****END OF INPUT****
================================================================================

                     *******************************
                     * Energy+Gradient Calculation *
                     *******************************

---------------------------------
CARTESIAN COORDINATES (ANGSTROEM)
---------------------------------
  C     -1.132391    0.668405    0.000000
  H     -1.134018    1.243052    0.931891
  H     -1.134017    1.243052   -0.931891
  C     -1.132393   -0.668405    0.000000
  H     -1.134021   -1.243052   -0.931891
  H     -1.134021   -1.243053    0.931891
  F      1.871496    0.000001   -0.000002
  H      0.938518    0.000000   -0.000000

----------------------------
CARTESIAN COORDINATES (A.U.)
----------------------------
  NO LB      ZA    FRAG     MASS         X           Y           Z
   0 C     6.0000    0    12.011   -2.139908    1.263102    0.000000
   1 H     1.0000    0     1.008   -2.142983    2.349029    1.761020
   2 H     1.0000    0     1.008   -2.142982    2.349028   -1.761019
   3 C     6.0000    0    12.011   -2.139912   -1.263102    0.000001
   4 H     1.0000    0     1.008   -2.142989   -2.349029   -1.761018
   5 H     1.0000    0     1.008   -2.142989   -2.349029    1.761019
   6 F     9.0000    0    18.998    3.536616    0.000002   -0.000005
   7 H     1.0000    0     1.008    1.773542    0.000000   -0.000000

--------------------------------
INTERNAL COORDINATES (ANGSTROEM)
--------------------------------
 C      0   0   0     0.000000000000     0.00000000     0.00000000
 H      1   0   0     1.094825789403     0.00000000     0.00000000
 H      1   2   0     1.094825692200   116.67997916     0.00000000
 C      1   2   3     1.336809930898   121.65986828   180.19069993
 H      4   1   2     1.094825858666   121.65987676   179.79985386
 H      4   1   2     1.094825807318   121.65990696     0.00000000
 F      1   2   3     3.077352920130    96.62986817   100.86456686
 H      7   1   2     0.932978265498    12.54474989   121.02841860

---------------------------
INTERNAL COORDINATES (A.U.)
---------------------------
 C      0   0   0     0.000000000000     0.00000000     0.00000000
 H      1   0   0     2.068920906326     0.00000000     0.00000000
 H      1   2   0     2.068920722640   116.67997916     0.00000000
 C      1   2   3     2.526204662504   121.65986828   180.19069993
 H      4   1   2     2.068921037213   121.65987676   179.79985386
 H      4   1   2     2.068920940180   121.65990696     0.00000000
 F      1   2   3     5.815354236468    96.62986817   100.86456686
 H      7   1   2     1.763073410692    12.54474989   121.02841860

---------------------
BASIS SET INFORMATION
---------------------
There are 3 groups of distinct atoms

 Group   1 Type C   : 7s4p1d contracted to 3s2p1d pattern {511/31/1}
 Group   2 Type H   : 4s1p contracted to 2s1p pattern {31/1}
 Group   3 Type F   : 7s4p1d contracted to 3s2p1d pattern {511/31/1}

Atom   0C    basis set group =>   1
Atom   1H    basis set group =>   2
Atom   2H    basis set group =>   2
Atom   3C    basis set group =>   1
Atom   4H    basis set group =>   2
Atom   5H    basis set group =>   2
Atom   6F    basis set group =>   3
Atom   7H    basis set group =>   2
---------------------------------
AUXILIARY/J BASIS SET INFORMATION
---------------------------------
There are 3 groups of distinct atoms

 Group   1 Type C   : 12s5p4d2f1g contracted to 6s4p3d1f1g pattern {711111/2111/211/2/1}
 Group   2 Type H   : 5s2p1d contracted to 3s1p1d pattern {311/2/1}
 Group   3 Type F   : 12s5p4d2f1g contracted to 6s4p3d1f1g pattern {711111/2111/211/2/1}

Atom   0C    basis set group =>   1
Atom   1H    basis set group =>   2
Atom   2H    basis set group =>   2
Atom   3C    basis set group =>   1
Atom   4H    basis set group =>   2
Atom   5H    basis set group =>   2
Atom   6F    basis set group =>   3
Atom   7H    basis set group =>   2


           ************************************************************
           *        Program running with 6 parallel MPI-processes     *
           *              working on a common directory               *
           ************************************************************
------------------------------------------------------------------------------
                             ORCA STARTUP CALCULATIONS
                           -- RI-GTO INTEGRALS CHOSEN --
------------------------------------------------------------------------------
------------------------------------------------------------------------------
                   ___                                                        
                  /   \      - P O W E R E D   B Y -                         
                 /     \                                                     
                 |  |  |   _    _      __       _____    __    __             
                 |  |  |  | |  | |    /  \     |  _  \  |  |  /  |          
                  \  \/   | |  | |   /    \    | | | |  |  | /  /          
                 / \  \   | |__| |  /  /\  \   | |_| |  |  |/  /          
                |  |  |   |  __  | /  /__\  \  |    /   |      \           
                |  |  |   | |  | | |   __   |  |    \   |  |\   \          
                \     /   | |  | | |  |  |  |  | |\  \  |  | \   \       
                 \___/    |_|  |_| |__|  |__|  |_| \__\ |__|  \__/        
                                                                              
                      - O R C A' S   B I G   F R I E N D -                    
                                      &                                       
                       - I N T E G R A L  F E E D E R -                       
                                                                              
 v1 FN, 2020, v2 2021, v3 2022-2024                                           
------------------------------------------------------------------------------


----------------------
SHARK INTEGRAL PACKAGE
----------------------

Number of atoms                             ...      8
Number of basis functions                   ...     67
Number of shells                            ...     33
Maximum angular momentum                    ...      2
Integral batch strategy                     ... SHARK/LIBINT Hybrid
RI-J (if used) integral strategy            ... SPLIT-RIJ (Revised 2003 algorithm where possible)
Printlevel                                  ...      1
Contraction scheme used                     ... SEGMENTED contraction
Prescreening option                         ... SCHWARTZ
   Thresh                                   ... 2.500e-11
   Tcut                                     ... 2.500e-12
   Tpresel                                  ... 2.500e-12 
Coulomb Range Separation                    ... NOT USED
Exchange Range Separation                   ... NOT USED
Multipole approximations                    ... NOT USED
Finite Nucleus Model                        ... NOT USED
CABS basis                                  ... NOT available
Auxiliary Coulomb fitting basis             ... AVAILABLE
   # of basis functions in Aux-J            ...    202
   # of shells in Aux-J                     ...     70
   Maximum angular momentum in Aux-J        ...      4
Auxiliary J/K fitting basis                 ... NOT available
Auxiliary Correlation fitting basis         ... NOT available
Auxiliary 'external' fitting basis          ... NOT available

Checking pre-screening integrals            ... done (  0.0 sec) Dimension = 33
   => SHARK Basis and OBASIS are compatible. Storing Pre-screening
Shell pair information
Shell pair cut-off parameter TPreSel        ...   2.5e-12
Total number of shell pairs                 ...       561
Shell pairs after pre-screening             ...       549
Total number of primitive shell pairs       ...      1945
Primitive shell pairs kept                  ...      1579
          la=0 lb=0:    186 shell pairs
          la=1 lb=0:    203 shell pairs
          la=1 lb=1:     66 shell pairs
          la=2 lb=0:     55 shell pairs
          la=2 lb=1:     33 shell pairs
          la=2 lb=2:      6 shell pairs

Checking whether 4 symmetric matrices of dimension 67 fit in memory
:Max Core in MB      =   4096.00
 MB in use           =      3.92
 MB left             =   4092.08
 MB needed           =      0.07
 Data fit in memory  = YES
Calculating RI/J V-Matrix + Cholesky decomp.... done (  0.0 sec)
Calculating Nuclear repulsion               ... done (  0.0 sec) ENN=     66.199640274213 Eh

Diagonalization of the overlap matrix:
Smallest eigenvalue                        ... 3.846e-03
Time for diagonalization                   ...    0.001 sec
Threshold for overlap eigenvalues          ... 1.000e-07
Number of eigenvalues below threshold      ... 0
Time for construction of square roots      ...    0.000 sec
Total time needed                          ...    0.002 sec

-------------------
DFT GRID GENERATION
-------------------

General Integration Accuracy     IntAcc      ... 4.388
Radial Grid Type                 RadialGrid  ... OptM3 with GC (2021)
Angular Grid (max. ang.)         AngularGrid ... 4 (Lebedev-302)
Angular grid pruning method      GridPruning ... 4 (adaptive)
Weight generation scheme         WeightScheme... mBecke (2022)
Basis function cutoff            BFCut       ... 1.0000e-11
Integration weight cutoff        WCut        ... 1.0000e-14
Partially contracted basis set               ... off
Rotationally invariant grid construction     ... off
Angular grids for H and He will be reduced by one unit

Total number of grid points                  ...    34615
Total number of batches                      ...      545
Average number of points per batch           ...       63
Average number of grid points per atom       ...     4327

--------------------
COSX GRID GENERATION
--------------------

GRIDX 1
-------
General Integration Accuracy     IntAcc      ... 3.816
Radial Grid Type                 RadialGrid  ... OptM3 with GC (2021)
Angular Grid (max. ang.)         AngularGrid ... 1 (Lebedev-50)
Angular grid pruning method      GridPruning ... 4 (adaptive)
Weight generation scheme         WeightScheme... mBecke (2022)
Basis function cutoff            BFCut       ... 1.0000e-11
Integration weight cutoff        WCut        ... 1.0000e-14
Partially contracted basis set               ... on
Rotationally invariant grid construction     ... off
Angular grids for H and He will be reduced by one unit

Total number of grid points                  ...     4469
Total number of batches                      ...       41
Average number of points per batch           ...      109
Average number of grid points per atom       ...      559
UseSFitting                                  ... on

GRIDX 2
-------
General Integration Accuracy     IntAcc      ... 4.020
Radial Grid Type                 RadialGrid  ... OptM3 with GC (2021)
Angular Grid (max. ang.)         AngularGrid ... 2 (Lebedev-110)
Angular grid pruning method      GridPruning ... 4 (adaptive)
Weight generation scheme         WeightScheme... mBecke (2022)
Basis function cutoff            BFCut       ... 1.0000e-11
Integration weight cutoff        WCut        ... 1.0000e-14
Partially contracted basis set               ... on
Rotationally invariant grid construction     ... off
Angular grids for H and He will be reduced by one unit

Total number of grid points                  ...     9499
Total number of batches                      ...       77
Average number of points per batch           ...      123
Average number of grid points per atom       ...     1187
UseSFitting                                  ... on

GRIDX 3
-------
General Integration Accuracy     IntAcc      ... 4.338
Radial Grid Type                 RadialGrid  ... OptM3 with GC (2021)
Angular Grid (max. ang.)         AngularGrid ... 3 (Lebedev-194)
Angular grid pruning method      GridPruning ... 4 (adaptive)
Weight generation scheme         WeightScheme... mBecke (2022)
Basis function cutoff            BFCut       ... 1.0000e-11
Integration weight cutoff        WCut        ... 1.0000e-14
Partially contracted basis set               ... on
Rotationally invariant grid construction     ... off
Angular grids for H and He will be reduced by one unit

Total number of grid points                  ...    20924
Total number of batches                      ...      168
Average number of points per batch           ...      124
Average number of grid points per atom       ...     2616
UseSFitting                                  ... on
Grids setup in   0.3 sec
Initializing property integral containers    ... done (  0.0 sec)

SHARK setup successfully completed in   0.4 seconds

Maximum memory used throughout the entire STARTUP-calculation: 11.3 MB


           ************************************************************
           *        Program running with 6 parallel MPI-processes     *
           *              working on a common directory               *
           ************************************************************
-------------------------------------------------------------------------------
                                 ORCA GUESS
                   Start orbitals & Density for SCF / CASSCF
-------------------------------------------------------------------------------

------------
SCF SETTINGS
------------
Hamiltonian:
 Density Functional     Method          .... DFT(GTOs)
 Exchange Functional    Exchange        .... B88
   X-Alpha parameter    XAlpha          ....  0.666667
   Becke's b parameter  XBeta           ....  0.004200
 Correlation Functional Correlation     .... LYP
 LDA part of GGA corr.  LDAOpt          .... VWN-5
 Gradients option       PostSCFGGA      .... off
 Hybrid DFT is turned on
   Fraction HF Exchange ScalHFX         ....  0.200000
   Scaling of DF-GGA-X  ScalDFX         ....  0.720000
   Scaling of DF-GGA-C  ScalDFC         ....  0.810000
   Scaling of DF-LDA-C  ScalLDAC        ....  1.000000
   Perturbative correction              ....  0.000000
   NL short-range parameter             ....  4.800000
 RI-approximation to the Coulomb term is turned on
   Number of AuxJ basis functions       .... 202
   RIJ-COSX (HFX calculated with COS-X)).... on


General Settings:
 Integral files         IntName         .... orca
 Hartree-Fock type      HFTyp           .... RHF
 Total Charge           Charge          ....    0
 Multiplicity           Mult            ....    1
 Number of Electrons    NEL             ....   26
 Basis Dimension        Dim             ....   67
 Nuclear Repulsion      ENuc            ....     66.1996402742 Eh

Convergence Acceleration:
 AO-DIIS                CNVDIIS         .... on
   Start iteration      DIISMaxIt       ....    12
   Startup error        DIISStart       ....  0.200000
   # of expansion vecs  DIISMaxEq       ....     5
   Bias factor          DIISBfac        ....   1.050
   Max. coefficient     DIISMaxC        ....  10.000
 MO-DIIS                CNVKDIIS        .... off
 Trust-Rad. Augm. Hess. CNVTRAH         .... auto
   Auto Start mean grad. ratio tolernc. ....  1.125000
   Auto Start start iteration           ....    50
   Auto Start num. interpolation iter.  ....    10
   Max. Number of Micro iterations      ....    24
   Max. Number of Macro iterations      .... Maxiter - #DIIS iter
   Number of Davidson start vectors     ....     2
   Converg. threshold    (grad. norm)   ....   1.000e-05
   Grad. Scal. Fac. for Micro threshold ....   0.100
   Minimum threshold for Micro iter.    ....   1.000e-02
   NR start threshold (gradient norm)   ....   1.000e-04
   Initial trust radius                 ....   0.400
   Minimum AH scaling param. (alpha)    ....   1.000
   Maximum AH scaling param. (alpha)    .... 1000.000
   Quad. conv. algorithm                .... NR
   White noise on init. David. guess    .... on
   Maximum white noise                  ....   0.010
   Pseudo random numbers                .... off
   Inactive MOs                         .... canonical
   Orbital update algorithm             .... Taylor
   Preconditioner                       .... Diag
   Full preconditioner red. dimension   ....   250
 SOSCF                 CNVSOSCF           .... on
   Start iteration     SOSCFMaxIt         ....   150
   Startup grad/error  SOSCFStart         ....  0.003300
   Hessian update      SOSCFHessUp        .... L-BFGS
   Autom. constraints  SOSCFAutoConstrain .... off
 Level Shifting         CNVShift        .... on
   Level shift para.    LevelShift      ....    0.2500
   Turn off err/grad.   ShiftErr        ....    0.0010
 Zerner damping         CNVZerner       .... off
 Static damping         CNVDamp         .... on
   Fraction old density DampFac         ....    0.7000
   Max. Damping (<1)    DampMax         ....    0.9800
   Min. Damping (>=0)   DampMin         ....    0.0000
   Turn off err/grad.   DampErr         ....    0.1000

SCF Procedure:
 Maximum # iterations   MaxIter         ....   125
 SCF integral mode      SCFMode         .... Direct
   Integral package                     .... SHARK and LIBINT hybrid scheme
 Reset frequency        DirectResetFreq ....    20
 Integral Threshold     Thresh          ....  2.500e-11 Eh
 Primitive CutOff       TCut            ....  2.500e-12 Eh

Convergence Tolerance:
 Convergence Check Mode ConvCheckMode   .... Total+1el-Energy
 Convergence forced     ConvForced      .... 0
 Energy Change          TolE            ....  1.000e-08 Eh
 1-El. energy change                    ....  1.000e-05 Eh
 Orbital Gradient       TolG            ....  1.000e-05
 Orbital Rotation angle TolX            ....  1.000e-05
 DIIS Error             TolErr          ....  5.000e-07

------------------------------
INITIAL GUESS: MODEL POTENTIAL
------------------------------
Loading Hartree-Fock densities                     ... done
Calculating cut-offs                               ... done
Initializing the effective Hamiltonian             ... done
Setting up the integral package (SHARK)            ... done
Starting the Coulomb interaction                   ... done (   0.0 sec)
Making the grid                                    ... done (   0.0 sec)
Mapping shells                                     ... done
Starting the XC term evaluation                    ... done (   0.0 sec)
  promolecular density results
     # of electrons  =     25.998925198
     EX              =    -21.757219697
     EC              =     -0.856072578
     EX+EC           =    -22.613292275
Transforming the Hamiltonian                       ... done (   0.0 sec)
Diagonalizing the Hamiltonian                      ... done (   0.0 sec)
Back transforming the eigenvectors                 ... done (   0.0 sec)
Now organizing SCF variables                       ... done
                      ------------------
                      INITIAL GUESS DONE (   0.1 sec)
                      ------------------
             **** ENERGY FILE WAS UPDATED (orca.en.tmp) ****
Finished Guess after   0.2 sec
Maximum memory used throughout the entire GUESS-calculation: 6.2 MB


           ************************************************************
           *        Program running with 6 parallel MPI-processes     *
           *              working on a common directory               *
           ************************************************************

-------------------------------------------------------------------------------------------
                                      ORCA LEAN-SCF
                              memory conserving SCF solver
-------------------------------------------------------------------------------------------

----------------------------------------D-I-I-S--------------------------------------------
Iteration    Energy (Eh)           Delta-E    RMSDP     MaxDP     DIISErr   Damp  Time(sec)
-------------------------------------------------------------------------------------------
               ***  Starting incremental Fock matrix formation  ***
    1    -178.7036646433815577     0.00e+00  1.08e-02  5.84e-02  2.08e-01  0.700   0.2
    2    -178.7466954676154387    -4.30e-02  7.17e-03  3.81e-02  9.37e-02  0.700   0.1
                               ***Turning on AO-DIIS***
    3    -178.7646508719683425    -1.80e-02  2.61e-03  1.27e-02  3.38e-02  0.700   0.1
    4    -178.7750482130750811    -1.04e-02  4.34e-03  1.77e-02  2.12e-02  0.000   0.1
    5    -178.7975680074355296    -2.25e-02  6.84e-04  2.57e-03  4.58e-03  0.000   0.1
                              *** Initializing SOSCF ***
---------------------------------------S-O-S-C-F--------------------------------------
Iteration    Energy (Eh)           Delta-E    RMSDP     MaxDP     MaxGrad    Time(sec)
--------------------------------------------------------------------------------------
    6    -178.7976501018286513    -8.21e-05  2.72e-04  1.21e-03  2.35e-03     0.1
               *** Restarting incremental Fock matrix formation ***
    7    -178.7975032136670279     1.47e-04  1.54e-04  5.41e-04  2.28e-04     0.2
    8    -178.7975032754185918    -6.18e-08  5.67e-05  2.79e-04  3.04e-04     0.2
    9    -178.7975038653186175    -5.90e-07  9.78e-06  4.74e-05  2.48e-05     0.2
   10    -178.7975038665319403    -1.21e-09  4.31e-06  2.08e-05  2.42e-05     0.2
                 **** Energy Check signals convergence ****

               *****************************************************
               *                     SUCCESS                       *
               *           SCF CONVERGED AFTER  10 CYCLES          *
               *****************************************************

Recomputing exchange energy using gridx3       ... done (    0.213 sec)
Old exchange energy                            :     -4.427762885 Eh
New exchange energy                            :     -4.427774548 Eh
Exchange energy change after final integration :     -0.000011663 Eh
Total energy after final integration           :   -178.797515533 Eh
             **** ENERGY FILE WAS UPDATED (orca.en.tmp) ****

----------------
TOTAL SCF ENERGY
----------------

Total Energy       :       -178.79751553292883 Eh           -4865.32775 eV

Components:
Nuclear Repulsion  :         66.19964027421297 Eh            1801.38379 eV
Electronic Energy  :       -244.99714414387944 Eh           -6666.71122 eV
One Electron Energy:       -375.91657980816660 Eh          -10229.21018 eV
Two Electron Energy:        130.91943566428716 Eh            3562.49896 eV

Virial components:
Potential Energy   :       -356.12311035704749 Eh           -9690.60249 eV
Kinetic Energy     :        177.32559482411867 Eh            4825.27475 eV
Virial Ratio       :          2.00830066697518

DFT components:
N(Alpha)           :       13.000011446877 electrons
N(Beta)            :       13.000011446877 electrons
N(Total)           :       26.000022893754 electrons
E(X)               :      -17.585027642408 Eh       
E(C)               :       -1.022294214043 Eh       
E(XC)              :      -18.607321856451 Eh       

---------------
SCF CONVERGENCE
---------------

  Last Energy change         ...    1.2133e-09  Tolerance :   1.0000e-08
  Last MAX-Density change    ...    2.0757e-05  Tolerance :   1.0000e-07
  Last RMS-Density change    ...    4.3136e-06  Tolerance :   5.0000e-09
  Last DIIS Error            ...    2.3521e-03  Tolerance :   5.0000e-07
  Last Orbital Gradient      ...    2.4161e-05  Tolerance :   1.0000e-05
  Last Orbital Rotation      ...    9.5156e-06  Tolerance :   1.0000e-05


----------------
ORBITAL ENERGIES
----------------

  NO   OCC          E(Eh)            E(eV) 
   0   2.0000     -24.621064      -669.9732 
   1   2.0000     -10.216209      -277.9972 
   2   2.0000     -10.215470      -277.9771 
   3   2.0000      -1.118705       -30.4415 
   4   2.0000      -0.779761       -21.2184 
   5   2.0000      -0.595284       -16.1985 
   6   2.0000      -0.493679       -13.4337 
   7   2.0000      -0.490362       -13.3434 
   8   2.0000      -0.445160       -12.1134 
   9   2.0000      -0.377215       -10.2645 
  10   2.0000      -0.355710        -9.6793 
  11   2.0000      -0.354942        -9.6585 
  12   2.0000      -0.305323        -8.3083 
  13   0.0000      -0.023848        -0.6489 
  14   0.0000       0.063282         1.7220 
  15   0.0000       0.086955         2.3662 
  16   0.0000       0.100132         2.7247 
  17   0.0000       0.134943         3.6720 
  18   0.0000       0.171735         4.6731 
  19   0.0000       0.301853         8.2138 
  20   0.0000       0.377165        10.2632 
  21   0.0000       0.407139        11.0788 
  22   0.0000       0.444006        12.0820 
  23   0.0000       0.511374        13.9152 
*Only the first 10 virtual orbitals were printed.

                    ********************************
                    * MULLIKEN POPULATION ANALYSIS *
                    ********************************

-----------------------
MULLIKEN ATOMIC CHARGES
-----------------------
   0 C :   -0.085469
   1 H :    0.053252
   2 H :    0.053252
   3 C :   -0.085469
   4 H :    0.053251
   5 H :    0.053251
   6 F :   -0.259878
   7 H :    0.217810
Sum of atomic charges:    0.0000000

--------------------------------
MULLIKEN REDUCED ORBITAL CHARGES
--------------------------------
  0 C s       :     3.155044  s :     3.155044
      pz      :     0.968908  p :     2.902795
      px      :     0.963783
      py      :     0.970104
      dz2     :     0.005490  d :     0.027630
      dxz     :     0.000003
      dyz     :     0.012488
      dx2y2   :     0.003914
      dxy     :     0.005735

  1 H s       :     0.923641  s :     0.923641
      pz      :     0.012011  p :     0.023108
      px      :     0.004187
      py      :     0.006910

  2 H s       :     0.923641  s :     0.923641
      pz      :     0.012011  p :     0.023108
      px      :     0.004187
      py      :     0.006910

  3 C s       :     3.155044  s :     3.155044
      pz      :     0.968908  p :     2.902795
      px      :     0.963783
      py      :     0.970104
      dz2     :     0.005490  d :     0.027630
      dxz     :     0.000003
      dyz     :     0.012488
      dx2y2   :     0.003914
      dxy     :     0.005735

  4 H s       :     0.923641  s :     0.923641
      pz      :     0.012011  p :     0.023108
      px      :     0.004187
      py      :     0.006910

  5 H s       :     0.923641  s :     0.923641
      pz      :     0.012011  p :     0.023108
      px      :     0.004187
      py      :     0.006910

  6 F s       :     3.855873  s :     3.855873
      pz      :     1.977817  p :     5.399090
      px      :     1.452424
      py      :     1.968850
      dz2     :     0.000905  d :     0.004915
      dxz     :     0.000636
      dyz     :     0.000000
      dx2y2   :     0.002709
      dxy     :     0.000665

  7 H s       :     0.689388  s :     0.689388
      pz      :     0.020667  p :     0.092802
      px      :     0.052046
      py      :     0.020089



                     *******************************
                     * LOEWDIN POPULATION ANALYSIS *
                     *******************************

----------------------
LOEWDIN ATOMIC CHARGES
----------------------
   0 C :   -0.035904
   1 H :    0.033624
   2 H :    0.033624
   3 C :   -0.035904
   4 H :    0.033624
   5 H :    0.033624
   6 F :   -0.120392
   7 H :    0.057704

-------------------------------
LOEWDIN REDUCED ORBITAL CHARGES
-------------------------------
  0 C s       :     2.898333  s :     2.898333
      pz      :     1.052636  p :     3.067705
      px      :     0.931451
      py      :     1.083618
      dz2     :     0.014406  d :     0.069866
      dxz     :     0.000003
      dyz     :     0.032973
      dx2y2   :     0.011911
      dxy     :     0.010575

  1 H s       :     0.899291  s :     0.899291
      pz      :     0.035140  p :     0.067086
      px      :     0.013388
      py      :     0.018558

  2 H s       :     0.899291  s :     0.899291
      pz      :     0.035140  p :     0.067086
      px      :     0.013388
      py      :     0.018558

  3 C s       :     2.898333  s :     2.898333
      pz      :     1.052636  p :     3.067704
      px      :     0.931450
      py      :     1.083618
      dz2     :     0.014406  d :     0.069866
      dxz     :     0.000003
      dyz     :     0.032973
      dx2y2   :     0.011911
      dxy     :     0.010575

  4 H s       :     0.899291  s :     0.899291
      pz      :     0.035140  p :     0.067085
      px      :     0.013388
      py      :     0.018558

  5 H s       :     0.899291  s :     0.899291
      pz      :     0.035140  p :     0.067085
      px      :     0.013388
      py      :     0.018558

  6 F s       :     3.698105  s :     3.698105
      pz      :     1.946186  p :     5.414324
      px      :     1.530512
      py      :     1.937626
      dz2     :     0.001893  d :     0.007962
      dxz     :     0.000202
      dyz     :     0.000000
      dx2y2   :     0.005668
      dxy     :     0.000200

  7 H s       :     0.699255  s :     0.699255
      pz      :     0.052862  p :     0.243041
      px      :     0.134325
      py      :     0.055854



                      *****************************
                      * MAYER POPULATION ANALYSIS *
                      *****************************

  NA   - Mulliken gross atomic population
  ZA   - Total nuclear charge
  QA   - Mulliken gross atomic charge
  VA   - Mayer's total valence
  BVA  - Mayer's bonded valence
  FA   - Mayer's free valence

  ATOM       NA         ZA         QA         VA         BVA        FA
  0 C      6.0855     6.0000    -0.0855     4.0031     4.0031    -0.0000
  1 H      0.9467     1.0000     0.0533     0.9740     0.9740     0.0000
  2 H      0.9467     1.0000     0.0533     0.9740     0.9740     0.0000
  3 C      6.0855     6.0000    -0.0855     4.0031     4.0031    -0.0000
  4 H      0.9467     1.0000     0.0533     0.9740     0.9740    -0.0000
  5 H      0.9467     1.0000     0.0533     0.9740     0.9740    -0.0000
  6 F      9.2599     9.0000    -0.2599     1.0073     1.0073     0.0000
  7 H      0.7822     1.0000     0.2178     1.0769     1.0769    -0.0000

  Mayer bond orders larger than 0.100000
B(  0-C ,  1-H ) :   0.9632 B(  0-C ,  2-H ) :   0.9632 B(  0-C ,  3-C ) :   1.9956 
B(  3-C ,  4-H ) :   0.9632 B(  3-C ,  5-H ) :   0.9632 B(  6-F ,  7-H ) :   0.9650 


-------
TIMINGS
-------

Total SCF time: 0 days 0 hours 0 min 2 sec 

Total time                  ....       2.162 sec
Sum of individual times     ....       1.971 sec  ( 91.2%)

SCF preparation             ....       0.161 sec  (  7.4%)
Fock matrix formation       ....       1.703 sec  ( 78.8%)
  Startup                   ....       0.003 sec  (  0.2% of F)
  Split-RI-J                ....       0.112 sec  (  6.6% of F)
  Chain of spheres X        ....       1.215 sec  ( 71.4% of F)
  XC integration            ....       0.457 sec  ( 26.8% of F)
    XC Preparation          ....       0.000 sec  (  0.0% of XC)
    Basis function eval.    ....       0.105 sec  ( 23.0% of XC)
    Density eval.           ....       0.044 sec  (  9.7% of XC)
    XC-Functional eval.     ....       0.034 sec  (  7.4% of XC)
    XC-Potential eval.      ....       0.049 sec  ( 10.7% of XC)
Diagonalization             ....       0.000 sec  (  0.0%)
Density matrix formation    ....       0.015 sec  (  0.7%)
Total Energy calculation    ....       0.009 sec  (  0.4%)
Population analysis         ....       0.008 sec  (  0.4%)
Orbital Transformation      ....       0.008 sec  (  0.4%)
Orbital Orthonormalization  ....       0.000 sec  (  0.0%)
DIIS solution               ....       0.043 sec  (  2.0%)
SOSCF solution              ....       0.025 sec  (  1.2%)
Finished LeanSCF after   2.2 sec

Maximum memory used throughout the entire LEANSCF-calculation: 6.5 MB


-------------------------------------------------------------------------------
                          DFT DISPERSION CORRECTION                            
                                                                               
                              DFTD3 V3.1  Rev 1                                
                          USING Becke-Johnson damping                          
-------------------------------------------------------------------------------
The B3LYP functional is recognized
Active option DFTDOPT                   ...         4   

molecular C6(AA) [au] = 458.739061 


            DFT-D V3
 parameters
 s6 scaling factor         :     1.0000 
 a1 scaling factor         :     0.3981 
 s8 scaling factor         :     1.9889 
 a2 scaling factor         :     4.4211 
 ad hoc parameters k1-k3   :    16.0000     1.3333    -4.0000 

 Edisp/kcal,au: -3.743550273094  -0.005965726461 
 E6   /kcal   :  -1.881901576 
 E8   /kcal   :  -1.861648697 
 % E8         :  49.729496356 

-------------------------   ----------------
Dispersion correction           -0.005965726
-------------------------   ----------------


-------------------------   --------------------
FINAL SINGLE POINT ENERGY      -178.803481259390
-------------------------   --------------------



           ************************************************************
           *        Program running with 6 parallel MPI-processes     *
           *              working on a common directory               *
           ************************************************************
------------------------------------------------------------------------------
                         ORCA SCF GRADIENT CALCULATION
------------------------------------------------------------------------------

Nuc. rep. gradient        (SHARK) ... done (  0.0 sec)
HCore & Overlap gradient  (SHARK) ... done (  0.0 sec)
Split-RIJ-J gradient      (SHARK) ... done (  0.1 sec)
done (  0.9 sec)
XC gradient                       ... done (  0.2 sec)
Dispersion correction             ... done (  0.0 sec)

-------------------
DISPERSION GRADIENT
-------------------

   1   C   :   -0.000143161    0.000094519    0.000000000
   2   H   :   -0.000067805    0.000111184    0.000057320
   3   H   :   -0.000067805    0.000111184   -0.000057320
   4   C   :   -0.000143162   -0.000094519    0.000000000
   5   H   :   -0.000067805   -0.000111184   -0.000057320
   6   H   :   -0.000067805   -0.000111184    0.000057320
   7   F   :    0.000389805    0.000000000   -0.000000000
   8   H   :    0.000167739    0.000000000   -0.000000000

Difference to translation invariance:
           :   -0.0000000000    0.0000000000    0.0000000000

Difference to rotation invariance:
           :    0.0000000000    0.0000000000    0.0000000000

Norm of the Dispersion gradient    ...    0.0005656168
RMS gradient                       ...    0.0001154560
MAX gradient                       ...    0.0003898045

------------------
CARTESIAN GRADIENT
------------------

   1   C   :   -0.000035629    0.000014977   -0.000000012
   2   H   :    0.000008777   -0.000034288   -0.000004375
   3   H   :    0.000008846   -0.000034373    0.000004438
   4   C   :   -0.000035925   -0.000014896   -0.000000012
   5   H   :    0.000008874    0.000034287    0.000004481
   6   H   :    0.000008974    0.000034352   -0.000004506
   7   F   :   -0.000177740   -0.000000103    0.000000033
   8   H   :    0.000213823    0.000000044   -0.000000046

Difference to translation invariance:
           :    0.0000000001    0.0000000000   -0.0000000000

Difference to rotation invariance:
           :   -0.0000000584    0.0000000490   -0.0000002602

Norm of the Cartesian gradient     ...    0.0002922751
RMS gradient                       ...    0.0000596604
MAX gradient                       ...    0.0002138229

-------
TIMINGS
-------

Total SCF gradient time     ....        1.290 sec

Densities                   ....       0.000 sec  (  0.0%)
One electron gradient       ....       0.011 sec  (  0.9%)
RI-J Coulomb gradient       ....       0.110 sec  (  8.5%)
COSX gradient               ....       0.913 sec  ( 70.8%)
XC gradient                 ....       0.206 sec  ( 16.0%)

Maximum memory used throughout the entire SCFGRAD-calculation: 26.0 MB


           ************************************************************
           *        Program running with 6 parallel MPI-processes     *
           *              working on a common directory               *
           ************************************************************

------------------------------------------------------------------------------
                              ORCA PROPERTY CALCULATIONS
------------------------------------------------------------------------------

GBWName                                 ... orca.gbw
Number of atoms                         ...      8
Number of basis functions               ...     67
Max core memory                         ...   4096 MB

Electric properties:
Dipole moment                           ... YES
Quadrupole moment                       ...  NO
Static polarizability (Dipole/Dipole)   ...  NO
Static polarizability (Dipole/Quad.)    ...  NO
Static polarizability (Quad./Quad.)     ...  NO
Static polarizability (Velocity)        ...  NO
Static hyperpolarizability              ...  NO

Atomic electric properties:
Dipole moment                           ...  NO
Quadrupole moment                       ...  NO
Static polarizability                   ...  NO

Choice of electric origin               ... Center of mass
Position of electric origin             ...     0.185828     0.000001    -0.000002

General magnetic properties:
Magnetizability                         ...  NO

EPR properties:
g-Tensor (aka g-matrix)                 ...  NO
Zero-Field splitting spin-orbit         ...  NO
Zero-field splitting spin-spin          ...  NO
Hyperfine couplings                     ...  NO (   0 nuclei)
Quadrupole couplings                    ...  NO (   0 nuclei)
Contact density                         ...  NO (   0 nuclei)

NMR properties:
Chemical shifts                         ...  NO (   0 nuclei)
Spin-rotation constants                 ...  NO (   0 nuclei)
Spin-spin couplings                     ...  NO (   0 nuclei,    0 pairs)

Choice of magnetic origin               ... GIAO
Position of magnetic origin             ...     0.000000     0.000000     0.000000

Properties with geometric perturbations:
SCF Hessian                             ...  NO
IR spectrum                             ...  NO
VCD spectrum                            ...  NO
X-ray spectroscopy properties:
SCF XES/XAS/RIXS spectra                ...  NO

SCF SOC stabilization energy            ...  NO
Diagonal Born-Oppenheimer correction    ...  NO

-------------
DIPOLE MOMENT
-------------

Method             : SCF
Type of density    : Electron Density
Multiplicity       :   1
Irrep              :   0
Energy             :  -178.7975155329288270 Eh
Basis              : AO
                                X                 Y                 Z
Electronic contribution:      4.458846293       0.000002581      -0.000004288
Nuclear contribution   :     -5.479321007      -0.000003511       0.000006041
                        -----------------------------------------
Total Dipole Moment    :     -1.020474714      -0.000000929       0.000001752
                        -----------------------------------------
Magnitude (a.u.)       :      1.020474714
Magnitude (Debye)      :      2.593840587



--------------------
Rotational spectrum 
--------------------
 
Rotational constants in cm-1:             0.823777             0.158356             0.140580 
Rotational constants in MHz :         24696.208551          4747.398206          4214.484966 

Dipole components along the rotational axes: 
x,y,z [a.u.] :    -1.020475     0.000000     0.000001 
x,y,z [Debye]:    -2.593841     0.000000     0.000002 

 

Dipole moment calculation done in   0.0 sec 

Maximum memory used throughout the entire PROP-calculation: 4.1 MB

--------------------------------
SUGGESTED CITATIONS FOR THIS RUN
--------------------------------

Below you find a list of papers that are relevant to this ORCA run
We neither can nor want to force you to cite these papers, but we appreciate if you do
You receive ORCA, which is the product of decades of hard work by many enthusiastic individuals, for free
The only thing we kindly ask in return is that you cite our papers,
We deeply appreciate it, if you show your appreciation for ORCA by not just citing the generic ORCA reference.

Please note that relegating all ORCA citations to the supporting information does *not* help us.
SI sections are not indexed - citations you put there will not count into any citation statistics
But we need these citations in order to attract the funding resources that allow us to do what we are doing

Therefore, if you are a happy ORCA user, please consider citing a few of the papers listed below in the main body of your paper

In addition to the list printed below, the program has created the file orca.bibtex that contains the list in bibtex format
You can import this file easily into all common literature databanks and citation aid programs


List of essential papers. We consider these as the minimum necessary citations

  1. Neese, F.
     Software update: the ORCA program system, version 6.0
     WIRES Comput. Molec. Sci. 2025 15(1), e70019
     doi.org/10.1002/wcms.7019

List of papers to cite with high priority. The work reported in these papers was absolutely
necessary for this run to complete.
Our perspective: the developers of density functionals and basis sets usually get cited in chemistry papers
Good! But without the algorithms to do something with them, the functionals or basis sets would not do anything.
Hence, in our opinion, the algorithm design and method developments papers are equally worthy of getting cited

  1. Neese, F.
     An improvement of the resolution of the identity approximation for the formation of the Coulomb matrix
     J. Comp. Chem. 2003 24(14), 1740-1747
     doi.org/10.1002/jcc.10318
  2. Neese, F.; Wennmohs, F.; Hansen, A.; Becker, U.
     Efficient, approximate and parallel Hartree-Fock and hybrid DFT calculations. A 'chain-of-spheres' algorithm for the Hartree-Fock exchange
     Chem. Phys. 2009 356(1-3), 98-109
     doi.org/10.1016/j.chemphys.2008.10.036
  3. Grimme, S.; Antony, J.; Ehrlich, S.; Krieg, H.
     A consistent and accurate ab initio parametrization of density functional dispersion correction (DFT-D) for the 94 elements H-Pu
     J. Chem. Phys. 2010 132 , 154104
     doi.org/10.1063/1.3382344
  4. Grimme, S.; Ehrlich, S.; Goerigk, L.
     Effect of the damping function in dispersion corrected density functional theory
     J. Comput. Chem. 2011 32(7), 1456-1465
     doi.org/10.1002/jcc.21759
  5. Helmich-Paris, B.; de Souza, B.; Neese, F.; Izsák, R.
     An improved chain of spheres for exchange algorithm
     J. Chem. Phys. 2021 155(10), 104109
     doi.org/10.1063/5.0058766
  6. Neese, F.
     The SHARK Integral Generation and Digestion System
     J. Comp. Chem. 2022 44(3), 381
     doi.org/10.1002/jcc.26942

List of suggested additional citations. These are papers that are important in the 'surrounding' of 
of this run, or papers that preceded the highly important papers. If you like your results we are grateful for a citation.

  1. Izsak, R.; Neese, F.
     An overlap fitted chain of spheres exchange method
     J. Chem. Phys. 2011 135 , 144105
     doi.org/10.1063/1.3646921
  2. Izsak, R.; Hansen, A.; Neese, F.
     The resolution of identity and chain of spheres approximations for the LPNO-CCSD singles Fock term
     Molec. Phys. 2012 110 , 2413-2417
     doi.org/10.1080/00268976.2012.687466
  3. Neese, F.
     The ORCA program system
     WIRES Comput. Molec. Sci. 2012 2(1), 73-78
     doi.org/10.1002/wcms.81
  4. Izsak, R.; Neese, F.; Klopper, W.
     Robust fitting techniques in the chain of spheres approximation to the Fock exchange: The role of the complementary space
     J. Chem. Phys. 2013 139 , 
     doi.org/10.1063/1.4819264
  5. Neese, F.
     Software update: the ORCA program system, version 4.0
     WIRES Comput. Molec. Sci. 2018 8(1), 1-6
     doi.org/10.1002/wcms.1327
  6. Neese, F.; Wennmohs, F.; Becker, U.; Riplinger, C.
     The ORCA quantum chemistry program package
     J. Chem. Phys. 2020 152(22), 224108
     doi.org/10.1063/5.0004608
  7. Neese, F.
     Software update: The ORCA program system—Version 5.0
     WIRES Comput. Molec. Sci. 2022 12(1), e1606
     doi.org/10.1002/wcms.1606

List of optional additional citations

  1. Neese, F.
     Approximate second-order SCF convergence for spin unrestricted wavefunctions
     Chem. Phys. Lett. 2000 325(1-3), 93-98
     doi.org/10.1016/s0009-2614(00)00662-x

Timings for individual modules:

Sum of individual times          ...        6.217 sec (=   0.104 min)
Startup calculation              ...        0.837 sec (=   0.014 min)  13.5 %
SCF iterations                   ...        3.008 sec (=   0.050 min)  48.4 %
Property calculations            ...        0.471 sec (=   0.008 min)   7.6 %
SCF Gradient evaluation          ...        1.900 sec (=   0.032 min)  30.6 %
                             ****ORCA TERMINATED NORMALLY****
TOTAL RUN TIME: 0 days 0 hours 0 minutes 6 seconds 861 msec
