
                                 *****************
                                 * O   R   C   A *
                                 *****************

                                            #,                                       
                                            ###                                      
                                            ####                                     
                                            #####                                    
                                            ######                                   
                                           ########,                                 
                                     ,,################,,,,,                         
                               ,,#################################,,                 
                          ,,##########################################,,             
                       ,#########################################, ''#####,          
                    ,#############################################,,   '####,        
                  ,##################################################,,,,####,       
                ,###########''''           ''''###############################       
              ,#####''   ,,,,##########,,,,          '''####'''          '####       
            ,##' ,,,,###########################,,,                        '##       
           ' ,,###''''                  '''############,,,                           
         ,,##''                                '''############,,,,        ,,,,,,###''
      ,#''                                            '''#######################'''  
     '                                                          ''''####''''         
             ,#######,   #######,   ,#######,      ##                                
            ,#'     '#,  ##    ##  ,#'     '#,    #''#        ,####,    ,#,          
            ##       ##  ##   ,#'  ##            #'  '#       #'       ,# #          
            ##       ##  #######   ##           ,######,      #####,      #          
            '#,     ,#'  ##    ##  '#,     ,#' ,#      #,     #,   #      #          
             '#######'   ##     ##  '#######'  #'      '#     '####' #    #          



                #########################################################
                #                        -***-                          #
                #          Department of theory and spectroscopy        #
                #                                                       #
                #                      Frank Neese                      #
                #                                                       #
                #     Directorship, Architecture, Infrastructure        #
                #                    SHARK, DRIVERS                     #
                #        Core code/Algorithms in most modules           #
                #                                                       #
                #        Max Planck Institute fuer Kohlenforschung      #
                #                Kaiser Wilhelm Platz 1                 #
                #                 D-45470 Muelheim/Ruhr                 #
                #                      Germany                          #
                #                                                       #
                #                  All rights reserved                  #
                #                        -***-                          #
                #########################################################


                         Program Version 6.1.0  -  RELEASE   -
                                (GIT: $679e74b$)
                          ($2025-06-10 18:02:51 +0200$)


 With contributions from (in alphabetic order):
[Max-Planck-Institut fuer Kohlenforschung]                               
  Daniel Aravena         : Magnetic Suceptibility                        
  Michael Atanasov       : Ab Initio Ligand Field Theory (pilot matlab implementation)
  Alexander A. Auer      : GIAO ZORA, VPT2 properties, NMR spectrum      
  Ute Becker             : All parallelization in ORCA, NUMFREQ, NUMCALC 
  Giovanni Bistoni       : ED, misc. LED, open-shell LED, HFLD           
  Dmytro Bykov           : pre 5.0 version of the SCF Hessian            
  Marcos Casanova-Páez   : Triplet and SCS-CIS(D). UHF-(DLPNO)-IP/EA/STEOM-CCSD. UHF-CVS-IP/STEOM-CCSD   
  Vijay G. Chilkuri      : MRCI spin determinant printing, contributions to CSF-ICE 
  Pauline Colinet        : FMM embedding                                 
  Dipayan Datta          : RHF DLPNO-CCSD density                        
  Achintya Kumar Dutta   : EOM-CC, STEOM-CC                              
  Nicolas Foglia         : Exact transition moments, OPA infrastructure, MCD improvements    
  Dmitry Ganyushin       : Spin-Orbit,Spin-Spin,Magnetic field MRCI      
  Miquel Garcia-Rates    : C-PCM and meta-GGA Hessian, CCSD/C-PCM, Gaussian charge scheme 
  Tiago L. C. Gouveia    : GS-ROHF, GS-ROCIS                             
  Yang Guo               : DLPNO-NEVPT2, F12-NEVPT2, CIM, IAO-localization        
  Andreas Hansen         : Spin unrestricted coupled pair/coupled cluster methods 
  Ingolf Harden          : AUTO-CI MPn and infrastructure                
  Benjamin Helmich-Paris : MC-RPA, TRAH-(SCF,CASSCF), AVAS, COSX integrals, SCF dyn. polar., MC-PDFT, srDFT 
  Lee Huntington         : MR-EOM, pCC                                   
  Robert Izsak           : Overlap fitted RIJCOSX, COSX-SCS-MP3, EOM     
  Riya Kayal             : Wick's Theorem for AUTO-CI, AUTO-CI UHF-CCSDT 
  Emily Kempfer          : AUTO-CI RHF CISDT and CCSDT, approximate NEVPT4
  Christian Kollmar      : KDIIS, OOCD, Brueckner-CCSD(T), CCSD density, CASPT2, CASPT2-K, improved NEVPT2 
  Axel Koslowski         : Symmetry handling                             
  Simone Kossmann        : meta-GGA functionals, TD-DFT gradient, OOMP2, (MP2 Hessian; deprecated post 5.0) 
  Lucas Lang             : DCDCAS, Hyperfine gauge corrections, ICE-SOC+SSC
  Marvin Lechner         : AUTO-CI (C++ implementation), FIC-MRCC        
  Spencer Leger          : CASSCF response                               
  Dagmar Lenk            : GEPOL surface, SMD, ORCA-2-JSON               
  Dimitrios Liakos       : Extrapolation schemes; Compound Job, Property file
  Dimitrios Manganas     : Further ROCIS development; embedding schemes. LFT, Crystal Embedding 
  Dimitrios Pantazis     : SARC Basis sets                               
  Anastasios Papadopoulos: AUTO-CI, single reference methods and gradients 
  Taras Petrenko         : pre 6.0 DFT Hessian and TD-DFT gradient,  ECA, NRVS 
  Petra Pikulova         : Analytic Raman intensities                    
  Peter Pinski           : DLPNO-MP2, DLPNO-MP2 Gradient                 
  Shashank Vittal Rao    : ES-AILFT, MagRelax                            
  Christoph Reimann      : Effective Core Potentials                     
  Marius Retegan         : Local ZFS, SOC                                
  Christoph Riplinger    : Optimizer, TS searches, QM/MM, DLPNO-CCSD(T), (RO)-DLPNO pert. Triples 
  Michael Roemelt        : Original ROCIS implementation, recursive CI coupling coefficients
  Masaaki Saitow         : Open-shell DLPNO-CCSD energy and density      
  Barbara Sandhoefer     : DKH picture change effects                    
  Yorick L. A. Schmerwitz: GMF and freeze-and-release deltaSCF, NEB S-IDPP initial path                    
  Kantharuban Sivalingam : CASSCF convergence/infrastructure, NEVPT2, NEVPT3, NEVPT4(SD), FIC-MRCI and CEPA variants
  Bernardo de Souza      : ESD, SOC TD-DFT                               
  Georgi L. Stoychev     : AutoAux, RI-MP2 NMR, DLPNO-MP2 response, X2C  
  Van Anh Tran           : RI-MP2 g-tensors                              
  Willem Van den Heuvel  : Paramagnetic NMR                              
  Zikuan Wang            : NOTCH, Electric field optimization            
  Frank Wennmohs         : Technical directorship and infrastructure     
  Hang Xu                : AUTO-CI-Response properties                   
                                                                         
[FACCTs GmbH]                                                            
  Markus Bursch, Nicolas Foglia, Miquel Garcia-Rates, Ingolf Harden, Hagen Neugebauer, Anastasios Papadopoulos, 
  Christoph Riplinger, Bernardo de Souza, Georgi L. Stoychev                                                    
                                                                 
  APM, various basis sets, CI-OPT, improved COSX, DLPNO-Multilevel,           
  DOCKER, DRACO, updates on ESD, Fragmentator, GOAT, IRC, LR-CPCM, L-BFGS, MBIS, meta-GGA TD-DFT gradient, ML-optimized integration grids, 
  MM, NACMEs, nearIR, NEB, NEB-TS, NL-DFT gradient (VV10), 2- and 3-layer-ONIOM, interface openCOSMO-RS, QMMM,   
  Crystal-QMMM, RESP, rigid body optimization, SF, symmetry and pop. for TD-DFT, various functionals, SOLVATOR                                   
                                                                         
[Other institutions]                                                     
  V. Asgeirsson          : NEB                                           
  Christoph Bannwarth    : sTDA-DFT, sTD-DFT, PBEh-3c, B97-3c, D3        
  Giovanni Bistoni       : ETS/NOCV, ADLD/ADEX, COVALED                  
  Martin Brehm           : Molecular dynamics                            
  Ronald Cardenas        : ETS/NOCV                                      
  Martina Colucci        : COVALED                                       
  Sebastian Ehlert       : rSCAN, r2SCAN, r2SCAN-3c, D4, dhf basis sets  
  Marvin Friede          : D4 for Fr, Ra, Ac-Lr                          
  Lars Goerigk           : TD-DFT with DH, B97 family of functionals     
  Stefan Grimme          : VdW corrections, initial TS optimization, DFT functionals, gCP, sTDA/sTD-DF 
  Waldemar Hujo          : DFT-NL                                        
  H. Jonsson             : NEB                                           
  Holger Kruse           : gCP                                           
  Marcel Mueller         : wB97X-3c, vDZP basis set                      
  Hagen Neugebauer       : wr2SCAN, Native XTB                           
  Gianluca Regni         : ADLD/ADEX                                     
  Tobias Risthaus        : pre 6.0 range-separated hybrid DFT and stability analysis
  Lukas Wittmann         : regularized MP2, r2SCAN double-hybrids, wr2SCAN        
                                                                         
We gratefully acknowledge several colleagues who have allowed us to      
interface, adapt or use parts of their codes:                            
  Ed Valeev, F. Pavosevic, A. Kumar             : LibInt (2-el integral package), F12 methods 
  Garnet Chan, S. Sharma, J. Yang, R. Olivares  : DMRG                   
  Ulf Ekstrom                                   : XCFun DFT Library      
  Mihaly Kallay                                 : mrcc  (arbitrary order and MRCC methods)
  Frank Weinhold                                : gennbo (NPA and NBO analysis)           
  Simon Mueller                                 : openCOSMO-RS                            
  Christopher J. Cramer and Donald G. Truhlar   : smd solvation model                     
  S Lehtola, MJT Oliveira, MAL Marques          : LibXC Library                           
  Liviu Ungur et al                             : ANISO software                          


 Your calculation uses the libint2 library for the computation of 2-el integrals
 For citations please refer to: http://libint.valeyev.net

 Your ORCA version has been built with support for libXC version: 7.0.0
 For citations please refer to: https://libxc.gitlab.io

 This ORCA versions uses:
   CBLAS   interface :  Fast vector & matrix operations
   LAPACKE interface :  Fast linear algebra routines
   SCALAPACK package :  Parallel linear algebra routines
   Shared memory     :  Shared parallel matrices
   BLAS/LAPACK       :  OpenBLAS 0.3.29  USE64BITINT DYNAMIC_ARCH NO_AFFINITY Zen SINGLE_THREADED
        Core in use  :  Zen
   Copyright (c) 2011-2014, The OpenBLAS Project


  ***********************************
  * Starting time: Wed Sep 10 13:35:13 2025
  * Host name:     wyk-Server
  * Process ID:    2289243
  * Working dir.:  /home/wyk/Documents/code/openQDC/MGMR/singlepointcalc/50/sp
  ***********************************

Your calculation utilizes the atom-pairwise dispersion correction
with the Becke-Johnson damping scheme (D3BJ)


Warning: RI is on but no J-basis has been assigned. Assigning Def2/J (nothing to worry about!)
================================================================================

----- Orbital basis set information -----
Your calculation utilizes the basis: def2-SVP
   F. Weigend and R. Ahlrichs, Phys. Chem. Chem. Phys. 7, 3297 (2005).

----- AuxJ basis set information -----
Your calculation utilizes the auxiliary basis: def2/J
   H-Rn: F. Weigend, Phys. Chem. Chem. Phys. 8, 1057 (2006).
   Fr-Lr: K. Eichkorn, F. Weigend, O. Treutler, R. Ahlrichs; Theor. Chem. Acc. 97, 119 (1997).

================================================================================
                                        WARNINGS
                       Please study these warnings very carefully!
================================================================================


================================================================================
                                       INPUT FILE
================================================================================
NAME = orca.inp
|  1> ! B3LYP def2-SVP d3 EnGrad 
|  2> %pal nprocs 6 end 
|  3> *xyz 0 1 
|  4> C   1.55531693162154 0.41876467544588 0.00992971372211
|  5> C   0.13593300982448 0.83137970738795 -0.17807453443682
|  6> C   -0.8276067929292 -0.01287640181375 -0.9762125186244
|  7> C   -0.74496062055712 -1.52574886421983 -0.93146224575455
|  8> O   -1.63167874032276 0.55775673117864 -1.68175200162596
|  9> H   2.12870888682348 1.18203884648425 0.54884063736557
| 10> H   1.99945139302387 0.27993580000857 -0.9966431286496
| 11> H   1.66020808477504 -0.54212547797404 0.53337207924109
| 12> H   0.22475146605283 -1.90606775413946 -0.58159748029257
| 13> H   -0.96254071800431 -1.92369101837592 -1.93247530583689
| 14> H   -1.52334006231958 -1.88429001449256 -0.24095542509687
| 15> H   0.00340280706708 2.01839208637828 1.63410704365623
| 16> H   -0.05362540613131 1.88943938198566 -0.3508872243157
| 17> H   -0.5742906792848 1.09034302441469 1.73121519883885
| 18> O   -0.98555572175633 0.07533627489785 1.47130098645438
| 19> H   -0.40417383788291 -0.54858699716619 1.94129420535512
| 20> *
| 21> 
| 22>                          ****END OF INPUT****
================================================================================

                     *******************************
                     * Energy+Gradient Calculation *
                     *******************************

---------------------------------
CARTESIAN COORDINATES (ANGSTROEM)
---------------------------------
  C      1.555317    0.418765    0.009930
  C      0.135933    0.831380   -0.178075
  C     -0.827607   -0.012876   -0.976213
  C     -0.744961   -1.525749   -0.931462
  O     -1.631679    0.557757   -1.681752
  H      2.128709    1.182039    0.548841
  H      1.999451    0.279936   -0.996643
  H      1.660208   -0.542125    0.533372
  H      0.224751   -1.906068   -0.581597
  H     -0.962541   -1.923691   -1.932475
  H     -1.523340   -1.884290   -0.240955
  H      0.003403    2.018392    1.634107
  H     -0.053625    1.889439   -0.350887
  H     -0.574291    1.090343    1.731215
  O     -0.985556    0.075336    1.471301
  H     -0.404174   -0.548587    1.941294

----------------------------
CARTESIAN COORDINATES (A.U.)
----------------------------
  NO LB      ZA    FRAG     MASS         X           Y           Z
   0 C     6.0000    0    12.011    2.939123    0.791351    0.018764
   1 C     6.0000    0    12.011    0.256876    1.571080   -0.336512
   2 C     6.0000    0    12.011   -1.563950   -0.024333   -1.844774
   3 C     6.0000    0    12.011   -1.407772   -2.883248   -1.760209
   4 O     8.0000    0    15.999   -3.083426    1.054007   -3.178051
   5 H     1.0000    0     1.008    4.022677    2.233730    1.037158
   6 H     1.0000    0     1.008    3.778416    0.529002   -1.883383
   7 H     1.0000    0     1.008    3.137339   -1.024469    1.007927
   8 H     1.0000    0     1.008    0.424719   -3.601946   -1.099060
   9 H     1.0000    0     1.008   -1.818938   -3.635249   -3.651849
  10 H     1.0000    0     1.008   -2.878696   -3.560792   -0.455340
  11 H     1.0000    0     1.008    0.006430    3.814208    3.088015
  12 H     1.0000    0     1.008   -0.101337    3.570523   -0.663081
  13 H     1.0000    0     1.008   -1.085252    2.060450    3.271523
  14 O     8.0000    0    15.999   -1.862430    0.142365    2.780356
  15 H     1.0000    0     1.008   -0.763778   -1.036679    3.668514

--------------------------------
INTERNAL COORDINATES (ANGSTROEM)
--------------------------------
 C      0   0   0     0.000000000000     0.00000000     0.00000000
 C      1   0   0     1.490049488898     0.00000000     0.00000000
 C      2   1   0     1.509371250295   121.32729429     0.00000000
 C      3   2   1     1.515788924698   120.52066743    35.89828942
 O      3   2   1     1.212410751820   117.89332014   218.32600228
 H      1   2   3     1.096262184921   111.55913330   175.71899055
 H      1   2   3     1.108926401282   107.55699744    56.35958321
 H      1   2   3     1.099228798281   113.14400375   298.98191324
 H      4   3   2     1.098812696987   113.76396155   340.41319054
 H      4   3   2     1.098965970044   108.88822769   217.55140243
 H      4   3   2     1.100557123085   107.76510885   100.32211597
 H      2   1   3     2.170383540875    95.98485283   153.85929637
 H      2   1   3     1.088708819590   117.06502763   219.72096428
 H     12   2   1     1.097467457097    69.11691552   251.60299750
 O     14  12   2     1.125581198547   159.14023144     6.45426180
 H     15  14  12     0.973744715073   104.37059320    96.38028549

---------------------------
INTERNAL COORDINATES (A.U.)
---------------------------
 C      0   0   0     0.000000000000     0.00000000     0.00000000
 C      1   0   0     2.815785460007     0.00000000     0.00000000
 C      2   1   0     2.852298297472   121.32729429     0.00000000
 C      3   2   1     2.864425944510   120.52066743    35.89828942
 O      3   2   1     2.291124282761   117.89332014   218.32600228
 H      1   2   3     2.071635300474   111.55913330   175.71899055
 H      1   2   3     2.095567201098   107.55699744    56.35958321
 H      1   2   3     2.077241387270   113.14400375   298.98191324
 H      4   3   2     2.076455069780   113.76396155   340.41319054
 H      4   3   2     2.076744713882   108.88822769   217.55140243
 H      4   3   2     2.079751557366   107.76510885   100.32211597
 H      2   1   3     4.101430497823    95.98485283   153.85929637
 H      2   1   3     2.057361508609   117.06502763   219.72096428
 H     12   2   1     2.073912934805    69.11691552   251.60299750
 O     14  12   2     2.127040206745   159.14023144     6.45426180
 H     15  14  12     1.840110835841   104.37059320    96.38028549

---------------------
BASIS SET INFORMATION
---------------------
There are 3 groups of distinct atoms

 Group   1 Type C   : 7s4p1d contracted to 3s2p1d pattern {511/31/1}
 Group   2 Type O   : 7s4p1d contracted to 3s2p1d pattern {511/31/1}
 Group   3 Type H   : 4s1p contracted to 2s1p pattern {31/1}

Atom   0C    basis set group =>   1
Atom   1C    basis set group =>   1
Atom   2C    basis set group =>   1
Atom   3C    basis set group =>   1
Atom   4O    basis set group =>   2
Atom   5H    basis set group =>   3
Atom   6H    basis set group =>   3
Atom   7H    basis set group =>   3
Atom   8H    basis set group =>   3
Atom   9H    basis set group =>   3
Atom  10H    basis set group =>   3
Atom  11H    basis set group =>   3
Atom  12H    basis set group =>   3
Atom  13H    basis set group =>   3
Atom  14O    basis set group =>   2
Atom  15H    basis set group =>   3
---------------------------------
AUXILIARY/J BASIS SET INFORMATION
---------------------------------
There are 3 groups of distinct atoms

 Group   1 Type C   : 12s5p4d2f1g contracted to 6s4p3d1f1g pattern {711111/2111/211/2/1}
 Group   2 Type O   : 12s5p4d2f1g contracted to 6s4p3d1f1g pattern {711111/2111/211/2/1}
 Group   3 Type H   : 5s2p1d contracted to 3s1p1d pattern {311/2/1}

Atom   0C    basis set group =>   1
Atom   1C    basis set group =>   1
Atom   2C    basis set group =>   1
Atom   3C    basis set group =>   1
Atom   4O    basis set group =>   2
Atom   5H    basis set group =>   3
Atom   6H    basis set group =>   3
Atom   7H    basis set group =>   3
Atom   8H    basis set group =>   3
Atom   9H    basis set group =>   3
Atom  10H    basis set group =>   3
Atom  11H    basis set group =>   3
Atom  12H    basis set group =>   3
Atom  13H    basis set group =>   3
Atom  14O    basis set group =>   2
Atom  15H    basis set group =>   3


           ************************************************************
           *        Program running with 6 parallel MPI-processes     *
           *              working on a common directory               *
           ************************************************************
------------------------------------------------------------------------------
                             ORCA STARTUP CALCULATIONS
                           -- RI-GTO INTEGRALS CHOSEN --
------------------------------------------------------------------------------
------------------------------------------------------------------------------
                   ___                                                        
                  /   \      - P O W E R E D   B Y -                         
                 /     \                                                     
                 |  |  |   _    _      __       _____    __    __             
                 |  |  |  | |  | |    /  \     |  _  \  |  |  /  |          
                  \  \/   | |  | |   /    \    | | | |  |  | /  /          
                 / \  \   | |__| |  /  /\  \   | |_| |  |  |/  /          
                |  |  |   |  __  | /  /__\  \  |    /   |      \           
                |  |  |   | |  | | |   __   |  |    \   |  |\   \          
                \     /   | |  | | |  |  |  |  | |\  \  |  | \   \       
                 \___/    |_|  |_| |__|  |__|  |_| \__\ |__|  \__/        
                                                                              
                      - O R C A' S   B I G   F R I E N D -                    
                                      &                                       
                       - I N T E G R A L  F E E D E R -                       
                                                                              
 v1 FN, 2020, v2 2021, v3 2022-2024                                           
------------------------------------------------------------------------------


----------------------
SHARK INTEGRAL PACKAGE
----------------------

Number of atoms                             ...     16
Number of basis functions                   ...    134
Number of shells                            ...     66
Maximum angular momentum                    ...      2
Integral batch strategy                     ... SHARK/LIBINT Hybrid
RI-J (if used) integral strategy            ... SPLIT-RIJ (Revised 2003 algorithm where possible)
Printlevel                                  ...      1
Contraction scheme used                     ... SEGMENTED contraction
Prescreening option                         ... SCHWARTZ
   Thresh                                   ... 2.500e-11
   Tcut                                     ... 2.500e-12
   Tpresel                                  ... 2.500e-12 
Coulomb Range Separation                    ... NOT USED
Exchange Range Separation                   ... NOT USED
Multipole approximations                    ... NOT USED
Finite Nucleus Model                        ... NOT USED
CABS basis                                  ... NOT available
Auxiliary Coulomb fitting basis             ... AVAILABLE
   # of basis functions in Aux-J            ...    404
   # of shells in Aux-J                     ...    140
   Maximum angular momentum in Aux-J        ...      4
Auxiliary J/K fitting basis                 ... NOT available
Auxiliary Correlation fitting basis         ... NOT available
Auxiliary 'external' fitting basis          ... NOT available

Checking pre-screening integrals            ... done (  0.0 sec) Dimension = 66
   => SHARK Basis and OBASIS are compatible. Storing Pre-screening
Shell pair information
Shell pair cut-off parameter TPreSel        ...   2.5e-12
Total number of shell pairs                 ...      2211
Shell pairs after pre-screening             ...      2163
Total number of primitive shell pairs       ...      7611
Primitive shell pairs kept                  ...      5709
          la=0 lb=0:    724 shell pairs
          la=1 lb=0:    815 shell pairs
          la=1 lb=1:    248 shell pairs
          la=2 lb=0:    224 shell pairs
          la=2 lb=1:    131 shell pairs
          la=2 lb=2:     21 shell pairs

Checking whether 4 symmetric matrices of dimension 134 fit in memory
:Max Core in MB      =   4096.00
 MB in use           =      6.06
 MB left             =   4089.94
 MB needed           =      0.28
 Data fit in memory  = YES
Calculating RI/J V-Matrix + Cholesky decomp.... done (  0.0 sec)
Calculating Nuclear repulsion               ... done (  0.0 sec) ENN=    256.465748860858 Eh

Diagonalization of the overlap matrix:
Smallest eigenvalue                        ... 2.145e-03
Time for diagonalization                   ...    0.002 sec
Threshold for overlap eigenvalues          ... 1.000e-07
Number of eigenvalues below threshold      ... 0
Time for construction of square roots      ...    0.001 sec
Total time needed                          ...    0.004 sec

-------------------
DFT GRID GENERATION
-------------------

General Integration Accuracy     IntAcc      ... 4.388
Radial Grid Type                 RadialGrid  ... OptM3 with GC (2021)
Angular Grid (max. ang.)         AngularGrid ... 4 (Lebedev-302)
Angular grid pruning method      GridPruning ... 4 (adaptive)
Weight generation scheme         WeightScheme... mBecke (2022)
Basis function cutoff            BFCut       ... 1.0000e-11
Integration weight cutoff        WCut        ... 1.0000e-14
Partially contracted basis set               ... off
Rotationally invariant grid construction     ... off
Angular grids for H and He will be reduced by one unit

Total number of grid points                  ...    68432
Total number of batches                      ...     1077
Average number of points per batch           ...       63
Average number of grid points per atom       ...     4277

--------------------
COSX GRID GENERATION
--------------------

GRIDX 1
-------
General Integration Accuracy     IntAcc      ... 3.816
Radial Grid Type                 RadialGrid  ... OptM3 with GC (2021)
Angular Grid (max. ang.)         AngularGrid ... 1 (Lebedev-50)
Angular grid pruning method      GridPruning ... 4 (adaptive)
Weight generation scheme         WeightScheme... mBecke (2022)
Basis function cutoff            BFCut       ... 1.0000e-11
Integration weight cutoff        WCut        ... 1.0000e-14
Partially contracted basis set               ... on
Rotationally invariant grid construction     ... off
Angular grids for H and He will be reduced by one unit

Total number of grid points                  ...     8776
Total number of batches                      ...       77
Average number of points per batch           ...      113
Average number of grid points per atom       ...      548
UseSFitting                                  ... on

GRIDX 2
-------
General Integration Accuracy     IntAcc      ... 4.020
Radial Grid Type                 RadialGrid  ... OptM3 with GC (2021)
Angular Grid (max. ang.)         AngularGrid ... 2 (Lebedev-110)
Angular grid pruning method      GridPruning ... 4 (adaptive)
Weight generation scheme         WeightScheme... mBecke (2022)
Basis function cutoff            BFCut       ... 1.0000e-11
Integration weight cutoff        WCut        ... 1.0000e-14
Partially contracted basis set               ... on
Rotationally invariant grid construction     ... off
Angular grids for H and He will be reduced by one unit

Total number of grid points                  ...    18441
Total number of batches                      ...      153
Average number of points per batch           ...      120
Average number of grid points per atom       ...     1153
UseSFitting                                  ... on

GRIDX 3
-------
General Integration Accuracy     IntAcc      ... 4.338
Radial Grid Type                 RadialGrid  ... OptM3 with GC (2021)
Angular Grid (max. ang.)         AngularGrid ... 3 (Lebedev-194)
Angular grid pruning method      GridPruning ... 4 (adaptive)
Weight generation scheme         WeightScheme... mBecke (2022)
Basis function cutoff            BFCut       ... 1.0000e-11
Integration weight cutoff        WCut        ... 1.0000e-14
Partially contracted basis set               ... on
Rotationally invariant grid construction     ... off
Angular grids for H and He will be reduced by one unit

Total number of grid points                  ...    40341
Total number of batches                      ...      325
Average number of points per batch           ...      124
Average number of grid points per atom       ...     2521
UseSFitting                                  ... on
Grids setup in   0.8 sec
Initializing property integral containers    ... done (  0.0 sec)

SHARK setup successfully completed in   0.9 seconds

Maximum memory used throughout the entire STARTUP-calculation: 19.8 MB


           ************************************************************
           *        Program running with 6 parallel MPI-processes     *
           *              working on a common directory               *
           ************************************************************
-------------------------------------------------------------------------------
                                 ORCA GUESS
                   Start orbitals & Density for SCF / CASSCF
-------------------------------------------------------------------------------

------------
SCF SETTINGS
------------
Hamiltonian:
 Density Functional     Method          .... DFT(GTOs)
 Exchange Functional    Exchange        .... B88
   X-Alpha parameter    XAlpha          ....  0.666667
   Becke's b parameter  XBeta           ....  0.004200
 Correlation Functional Correlation     .... LYP
 LDA part of GGA corr.  LDAOpt          .... VWN-5
 Gradients option       PostSCFGGA      .... off
 Hybrid DFT is turned on
   Fraction HF Exchange ScalHFX         ....  0.200000
   Scaling of DF-GGA-X  ScalDFX         ....  0.720000
   Scaling of DF-GGA-C  ScalDFC         ....  0.810000
   Scaling of DF-LDA-C  ScalLDAC        ....  1.000000
   Perturbative correction              ....  0.000000
   NL short-range parameter             ....  4.800000
 RI-approximation to the Coulomb term is turned on
   Number of AuxJ basis functions       .... 404
   RIJ-COSX (HFX calculated with COS-X)).... on


General Settings:
 Integral files         IntName         .... orca
 Hartree-Fock type      HFTyp           .... RHF
 Total Charge           Charge          ....    0
 Multiplicity           Mult            ....    1
 Number of Electrons    NEL             ....   50
 Basis Dimension        Dim             ....  134
 Nuclear Repulsion      ENuc            ....    256.4657488609 Eh

Convergence Acceleration:
 AO-DIIS                CNVDIIS         .... on
   Start iteration      DIISMaxIt       ....    12
   Startup error        DIISStart       ....  0.200000
   # of expansion vecs  DIISMaxEq       ....     5
   Bias factor          DIISBfac        ....   1.050
   Max. coefficient     DIISMaxC        ....  10.000
 MO-DIIS                CNVKDIIS        .... off
 Trust-Rad. Augm. Hess. CNVTRAH         .... auto
   Auto Start mean grad. ratio tolernc. ....  1.125000
   Auto Start start iteration           ....    50
   Auto Start num. interpolation iter.  ....    10
   Max. Number of Micro iterations      ....    24
   Max. Number of Macro iterations      .... Maxiter - #DIIS iter
   Number of Davidson start vectors     ....     2
   Converg. threshold    (grad. norm)   ....   1.000e-05
   Grad. Scal. Fac. for Micro threshold ....   0.100
   Minimum threshold for Micro iter.    ....   1.000e-02
   NR start threshold (gradient norm)   ....   1.000e-04
   Initial trust radius                 ....   0.400
   Minimum AH scaling param. (alpha)    ....   1.000
   Maximum AH scaling param. (alpha)    .... 1000.000
   Quad. conv. algorithm                .... NR
   White noise on init. David. guess    .... on
   Maximum white noise                  ....   0.010
   Pseudo random numbers                .... off
   Inactive MOs                         .... canonical
   Orbital update algorithm             .... Taylor
   Preconditioner                       .... Diag
   Full preconditioner red. dimension   ....   250
 SOSCF                 CNVSOSCF           .... on
   Start iteration     SOSCFMaxIt         ....   150
   Startup grad/error  SOSCFStart         ....  0.003300
   Hessian update      SOSCFHessUp        .... L-BFGS
   Autom. constraints  SOSCFAutoConstrain .... off
 Level Shifting         CNVShift        .... on
   Level shift para.    LevelShift      ....    0.2500
   Turn off err/grad.   ShiftErr        ....    0.0010
 Zerner damping         CNVZerner       .... off
 Static damping         CNVDamp         .... on
   Fraction old density DampFac         ....    0.7000
   Max. Damping (<1)    DampMax         ....    0.9800
   Min. Damping (>=0)   DampMin         ....    0.0000
   Turn off err/grad.   DampErr         ....    0.1000

SCF Procedure:
 Maximum # iterations   MaxIter         ....   125
 SCF integral mode      SCFMode         .... Direct
   Integral package                     .... SHARK and LIBINT hybrid scheme
 Reset frequency        DirectResetFreq ....    20
 Integral Threshold     Thresh          ....  2.500e-11 Eh
 Primitive CutOff       TCut            ....  2.500e-12 Eh

Convergence Tolerance:
 Convergence Check Mode ConvCheckMode   .... Total+1el-Energy
 Convergence forced     ConvForced      .... 0
 Energy Change          TolE            ....  1.000e-08 Eh
 1-El. energy change                    ....  1.000e-05 Eh
 Orbital Gradient       TolG            ....  1.000e-05
 Orbital Rotation angle TolX            ....  1.000e-05
 DIIS Error             TolErr          ....  5.000e-07

------------------------------
INITIAL GUESS: MODEL POTENTIAL
------------------------------
Loading Hartree-Fock densities                     ... done
Calculating cut-offs                               ... done
Initializing the effective Hamiltonian             ... done
Setting up the integral package (SHARK)            ... done
Starting the Coulomb interaction                   ... done (   0.0 sec)
Making the grid                                    ... done (   0.1 sec)
Mapping shells                                     ... done
Starting the XC term evaluation                    ... done (   0.0 sec)
  promolecular density results
     # of electrons  =     49.997979218
     EX              =    -39.838634273
     EC              =     -1.651772879
     EX+EC           =    -41.490407152
Transforming the Hamiltonian                       ... done (   0.0 sec)
Diagonalizing the Hamiltonian                      ... done (   0.0 sec)
Back transforming the eigenvectors                 ... done (   0.0 sec)
Now organizing SCF variables                       ... done
                      ------------------
                      INITIAL GUESS DONE (   0.2 sec)
                      ------------------
             **** ENERGY FILE WAS UPDATED (orca.en.tmp) ****
Finished Guess after   0.3 sec
Maximum memory used throughout the entire GUESS-calculation: 8.6 MB


           ************************************************************
           *        Program running with 6 parallel MPI-processes     *
           *              working on a common directory               *
           ************************************************************

-------------------------------------------------------------------------------------------
                                      ORCA LEAN-SCF
                              memory conserving SCF solver
-------------------------------------------------------------------------------------------

----------------------------------------D-I-I-S--------------------------------------------
Iteration    Energy (Eh)           Delta-E    RMSDP     MaxDP     DIISErr   Damp  Time(sec)
-------------------------------------------------------------------------------------------
               ***  Starting incremental Fock matrix formation  ***
    1    -308.0584016679893011     0.00e+00  1.24e-02  1.13e-01  2.67e-01  0.700   0.8
Warning: op=0 Small HOMO/LUMO gap (   0.092) - skipping pre-diagonalization
         Will do a full diagonalization
    2    -308.1790699469377159    -1.21e-01  7.78e-03  8.21e-02  9.49e-02  0.700   0.5
                               ***Turning on AO-DIIS***
    3    -308.2195696762630632    -4.05e-02  2.89e-03  2.32e-02  3.74e-02  0.700   0.5
    4    -308.2450620869045679    -2.55e-02  4.45e-03  4.17e-02  1.67e-02  0.000   0.5
    5    -308.3026962692740653    -5.76e-02  1.22e-03  1.32e-02  7.84e-03  0.000   0.5
                              *** Initializing SOSCF ***
---------------------------------------S-O-S-C-F--------------------------------------
Iteration    Energy (Eh)           Delta-E    RMSDP     MaxDP     MaxGrad    Time(sec)
--------------------------------------------------------------------------------------
    6    -308.3031088409925360    -4.13e-04  3.92e-04  3.47e-03  1.77e-03     0.5
               *** Restarting incremental Fock matrix formation ***
    7    -308.3031134730825897    -4.63e-06  3.78e-04  3.30e-03  3.30e-04     0.8
    8    -308.3031110103684114     2.46e-06  1.76e-04  1.64e-03  1.20e-03     0.7
    9    -308.3031220259018710    -1.10e-05  1.24e-04  1.12e-03  2.48e-04     0.6
   10    -308.3031218357757552     1.90e-07  5.52e-05  5.52e-04  1.70e-04     0.6
   11    -308.3031228820183287    -1.05e-06  3.58e-05  3.76e-04  6.53e-05     0.6
   12    -308.3031228521823550     2.98e-08  1.82e-05  1.64e-04  5.82e-05     0.6
   13    -308.3031229767271952    -1.25e-07  4.31e-06  3.22e-05  6.21e-06     0.6
   14    -308.3031229744553912     2.27e-09  1.94e-06  1.64e-05  7.85e-06     0.5
                 **** Energy Check signals convergence ****

               *****************************************************
               *                     SUCCESS                       *
               *           SCF CONVERGED AFTER  14 CYCLES          *
               *****************************************************

Recomputing exchange energy using gridx3       ... done (    1.127 sec)
Old exchange energy                            :     -8.088705148 Eh
New exchange energy                            :     -8.088662454 Eh
Exchange energy change after final integration :      0.000042694 Eh
Total energy after final integration           :   -308.303080281 Eh
             **** ENERGY FILE WAS UPDATED (orca.en.tmp) ****

----------------
TOTAL SCF ENERGY
----------------

Total Energy       :       -308.30308028124614 Eh           -8389.35332 eV

Components:
Nuclear Repulsion  :        256.46574886085818 Eh            6978.78782 eV
Electronic Energy  :       -564.76887183634517 Eh          -15368.14230 eV
One Electron Energy:       -926.63310711410099 Eh          -25214.96875 eV
Two Electron Energy:        361.86423527775582 Eh            9846.82644 eV

Virial components:
Potential Energy   :       -613.80272361727202 Eh          -16702.42124 eV
Kinetic Energy     :        305.49964333602588 Eh            8313.06792 eV
Virial Ratio       :          2.00917656372560

DFT components:
N(Alpha)           :       24.999977244971 electrons
N(Beta)            :       24.999977244971 electrons
N(Total)           :       49.999954489941 electrons
E(X)               :      -32.188028392199 Eh       
E(C)               :       -1.954537388174 Eh       
E(XC)              :      -34.142565780373 Eh       

---------------
SCF CONVERGENCE
---------------

  Last Energy change         ...   -2.2718e-09  Tolerance :   1.0000e-08
  Last MAX-Density change    ...    1.6435e-05  Tolerance :   1.0000e-07
  Last RMS-Density change    ...    1.9390e-06  Tolerance :   5.0000e-09
  Last DIIS Error            ...    1.7656e-03  Tolerance :   5.0000e-07
  Last Orbital Gradient      ...    7.8514e-06  Tolerance :   1.0000e-05
  Last Orbital Rotation      ...    9.8201e-06  Tolerance :   1.0000e-05


----------------
ORBITAL ENERGIES
----------------

  NO   OCC          E(Eh)            E(eV) 
   0   2.0000     -19.143469      -520.9203 
   1   2.0000     -19.134125      -520.6660 
   2   2.0000     -10.288319      -279.9594 
   3   2.0000     -10.280223      -279.7391 
   4   2.0000     -10.221831      -278.1502 
   5   2.0000     -10.200265      -277.5633 
   6   2.0000      -1.042876       -28.3781 
   7   2.0000      -0.979704       -26.6591 
   8   2.0000      -0.806449       -21.9446 
   9   2.0000      -0.738844       -20.1050 
  10   2.0000      -0.663510       -18.0550 
  11   2.0000      -0.547252       -14.8915 
  12   2.0000      -0.512054       -13.9337 
  13   2.0000      -0.484808       -13.1923 
  14   2.0000      -0.469745       -12.7824 
  15   2.0000      -0.464589       -12.6421 
  16   2.0000      -0.443486       -12.0679 
  17   2.0000      -0.421555       -11.4711 
  18   2.0000      -0.406243       -11.0544 
  19   2.0000      -0.398943       -10.8558 
  20   2.0000      -0.385775       -10.4975 
  21   2.0000      -0.369780       -10.0622 
  22   2.0000      -0.329050        -8.9539 
  23   2.0000      -0.263908        -7.1813 
  24   2.0000      -0.211816        -5.7638 
  25   0.0000      -0.111475        -3.0334 
  26   0.0000      -0.000051        -0.0014 
  27   0.0000       0.032710         0.8901 
  28   0.0000       0.073738         2.0065 
  29   0.0000       0.092987         2.5303 
  30   0.0000       0.099275         2.7014 
  31   0.0000       0.107109         2.9146 
  32   0.0000       0.131476         3.5776 
  33   0.0000       0.138622         3.7721 
  34   0.0000       0.159248         4.3333 
  35   0.0000       0.196211         5.3392 
*Only the first 10 virtual orbitals were printed.

                    ********************************
                    * MULLIKEN POPULATION ANALYSIS *
                    ********************************

-----------------------
MULLIKEN ATOMIC CHARGES
-----------------------
   0 C :    0.059433
   1 C :   -0.018302
   2 C :    0.042557
   3 C :    0.041610
   4 O :   -0.185897
   5 H :    0.055268
   6 H :    0.048122
   7 H :    0.030958
   8 H :    0.003222
   9 H :    0.036437
  10 H :    0.058074
  11 H :   -0.330862
  12 H :    0.089640
  13 H :    0.188164
  14 O :   -0.262772
  15 H :    0.144348
Sum of atomic charges:    0.0000000

--------------------------------
MULLIKEN REDUCED ORBITAL CHARGES
--------------------------------
  0 C s       :     2.955119  s :     2.955119
      pz      :     1.003181  p :     2.957460
      px      :     0.940841
      py      :     1.013437
      dz2     :     0.005347  d :     0.027989
      dxz     :     0.004784
      dyz     :     0.005068
      dx2y2   :     0.007298
      dxy     :     0.005492

  1 C s       :     3.272064  s :     3.272064
      pz      :     0.732465  p :     2.711749
      px      :     0.933303
      py      :     1.045981
      dz2     :     0.003761  d :     0.034489
      dxz     :     0.007353
      dyz     :     0.005804
      dx2y2   :     0.009388
      dxy     :     0.008182

  2 C s       :     3.147313  s :     3.147313
      pz      :     0.815812  p :     2.713937
      px      :     0.862577
      py      :     1.035549
      dz2     :     0.017038  d :     0.096193
      dxz     :     0.015387
      dyz     :     0.018608
      dx2y2   :     0.023593
      dxy     :     0.021567

  3 C s       :     2.946102  s :     2.946102
      pz      :     1.031207  p :     2.987212
      px      :     0.988900
      py      :     0.967105
      dz2     :     0.005532  d :     0.025077
      dxz     :     0.005058
      dyz     :     0.003696
      dx2y2   :     0.007338
      dxy     :     0.003453

  4 O s       :     3.750297  s :     3.750297
      pz      :     1.365052  p :     4.417329
      px      :     1.357313
      py      :     1.694964
      dz2     :     0.003799  d :     0.018271
      dxz     :     0.004396
      dyz     :     0.003157
      dx2y2   :     0.003215
      dxy     :     0.003704

  5 H s       :     0.921292  s :     0.921292
      pz      :     0.007336  p :     0.023439
      px      :     0.006370
      py      :     0.009733

  6 H s       :     0.927863  s :     0.927863
      pz      :     0.012439  p :     0.024015
      px      :     0.006226
      py      :     0.005350

  7 H s       :     0.945511  s :     0.945511
      pz      :     0.007296  p :     0.023530
      px      :     0.004171
      py      :     0.012063

  8 H s       :     0.973293  s :     0.973293
      pz      :     0.005925  p :     0.023485
      px      :     0.012160
      py      :     0.005401

  9 H s       :     0.940333  s :     0.940333
      pz      :     0.012883  p :     0.023230
      px      :     0.005307
      py      :     0.005040

 10 H s       :     0.917530  s :     0.917530
      pz      :     0.009053  p :     0.024396
      px      :     0.009868
      py      :     0.005475

 11 H s       :     1.324944  s :     1.324944
      pz      :     0.001311  p :     0.005919
      px      :     0.001041
      py      :     0.003566

 12 H s       :     0.885695  s :     0.885695
      pz      :     0.005322  p :     0.024665
      px      :     0.003688
      py      :     0.015655

 13 H s       :     0.746845  s :     0.746845
      pz      :     0.009406  p :     0.064992
      px      :     0.014176
      py      :     0.041410

 14 O s       :     3.744842  s :     3.744842
      pz      :     1.484759  p :     4.510133
      px      :     1.661068
      py      :     1.364306
      dz2     :     0.000499  d :     0.007797
      dxz     :     0.002091
      dyz     :     0.001412
      dx2y2   :     0.000686
      dxy     :     0.003109

 15 H s       :     0.788467  s :     0.788467
      pz      :     0.018938  p :     0.067185
      px      :     0.022891
      py      :     0.025356



                     *******************************
                     * LOEWDIN POPULATION ANALYSIS *
                     *******************************

----------------------
LOEWDIN ATOMIC CHARGES
----------------------
   0 C :   -0.052722
   1 C :    0.148172
   2 C :    0.063561
   3 C :   -0.078246
   4 O :   -0.127032
   5 H :    0.046485
   6 H :    0.053089
   7 H :    0.033183
   8 H :    0.024334
   9 H :    0.042463
  10 H :    0.054281
  11 H :   -0.215512
  12 H :    0.047125
  13 H :   -0.008796
  14 O :   -0.095005
  15 H :    0.064620

-------------------------------
LOEWDIN REDUCED ORBITAL CHARGES
-------------------------------
  0 C s       :     2.835431  s :     2.835431
      pz      :     1.059623  p :     3.143848
      px      :     1.016238
      py      :     1.067988
      dz2     :     0.013761  d :     0.073443
      dxz     :     0.012655
      dyz     :     0.013500
      dx2y2   :     0.019594
      dxy     :     0.013933

  1 C s       :     2.951700  s :     2.951700
      pz      :     0.716787  p :     2.820223
      px      :     1.003488
      py      :     1.099949
      dz2     :     0.007898  d :     0.079904
      dxz     :     0.015554
      dyz     :     0.013019
      dx2y2   :     0.023957
      dxy     :     0.019476

  2 C s       :     2.888337  s :     2.888337
      pz      :     0.875621  p :     2.830573
      px      :     0.911778
      py      :     1.043174
      dz2     :     0.032908  d :     0.217529
      dxz     :     0.038495
      dyz     :     0.041458
      dx2y2   :     0.053967
      dxy     :     0.050701

  3 C s       :     2.847624  s :     2.847624
      pz      :     1.076666  p :     3.163699
      px      :     1.062961
      py      :     1.024072
      dz2     :     0.014721  d :     0.066922
      dxz     :     0.012477
      dyz     :     0.009594
      dx2y2   :     0.020766
      dxy     :     0.009364

  4 O s       :     3.549150  s :     3.549150
      pz      :     1.406045  p :     4.546606
      px      :     1.418246
      py      :     1.722315
      dz2     :     0.004743  d :     0.031276
      dxz     :     0.008966
      dyz     :     0.005687
      dx2y2   :     0.004971
      dxy     :     0.006909

  5 H s       :     0.887289  s :     0.887289
      pz      :     0.019385  p :     0.066227
      px      :     0.019455
      py      :     0.027386

  6 H s       :     0.882379  s :     0.882379
      pz      :     0.034834  p :     0.064532
      px      :     0.016979
      py      :     0.012719

  7 H s       :     0.901485  s :     0.901485
      pz      :     0.019012  p :     0.065332
      px      :     0.012050
      py      :     0.034270

  8 H s       :     0.909263  s :     0.909263
      pz      :     0.015669  p :     0.066403
      px      :     0.033914
      py      :     0.016820

  9 H s       :     0.891740  s :     0.891740
      pz      :     0.036403  p :     0.065797
      px      :     0.013327
      py      :     0.016067

 10 H s       :     0.878333  s :     0.878333
      pz      :     0.024049  p :     0.067385
      px      :     0.027101
      py      :     0.016235

 11 H s       :     1.198447  s :     1.198447
      pz      :     0.001888  p :     0.017065
      px      :     0.004231
      py      :     0.010946

 12 H s       :     0.873284  s :     0.873284
      pz      :     0.016125  p :     0.079592
      px      :     0.012285
      py      :     0.051181

 13 H s       :     0.767683  s :     0.767683
      pz      :     0.027849  p :     0.241113
      px      :     0.051144
      py      :     0.162121

 14 O s       :     3.528986  s :     3.528986
      pz      :     1.478116  p :     4.550628
      px      :     1.686449
      py      :     1.386063
      dz2     :     0.001176  d :     0.015391
      dxz     :     0.003239
      dyz     :     0.003035
      dx2y2   :     0.001740
      dxy     :     0.006201

 15 H s       :     0.756393  s :     0.756393
      pz      :     0.054742  p :     0.178987
      px      :     0.062509
      py      :     0.061737



                      *****************************
                      * MAYER POPULATION ANALYSIS *
                      *****************************

  NA   - Mulliken gross atomic population
  ZA   - Total nuclear charge
  QA   - Mulliken gross atomic charge
  VA   - Mayer's total valence
  BVA  - Mayer's bonded valence
  FA   - Mayer's free valence

  ATOM       NA         ZA         QA         VA         BVA        FA
  0 C      5.9406     6.0000     0.0594     3.9285     3.9285    -0.0000
  1 C      6.0183     6.0000    -0.0183     3.8415     3.8415     0.0000
  2 C      5.9574     6.0000     0.0426     4.2126     4.2126    -0.0000
  3 C      5.9584     6.0000     0.0416     3.8595     3.8595     0.0000
  4 O      8.1859     8.0000    -0.1859     2.2774     2.2774     0.0000
  5 H      0.9447     1.0000     0.0553     1.0027     1.0027    -0.0000
  6 H      0.9519     1.0000     0.0481     0.9853     0.9853     0.0000
  7 H      0.9690     1.0000     0.0310     0.9997     0.9997    -0.0000
  8 H      0.9968     1.0000     0.0032     1.0008     1.0008    -0.0000
  9 H      0.9636     1.0000     0.0364     1.0106     1.0106    -0.0000
 10 H      0.9419     1.0000     0.0581     1.0167     1.0167    -0.0000
 11 H      1.3309     1.0000    -0.3309     0.8605     0.8605     0.0000
 12 H      0.9104     1.0000     0.0896     0.9966     0.9966     0.0000
 13 H      0.8118     1.0000     0.1882     1.0504     1.0504     0.0000
 14 O      8.2628     8.0000    -0.2628     2.1971     2.1971     0.0000
 15 H      0.8557     1.0000     0.1443     1.0418     1.0418     0.0000

  Mayer bond orders larger than 0.100000
B(  0-C ,  1-C ) :   1.0953 B(  0-C ,  5-H ) :   0.9533 B(  0-C ,  6-H ) :   0.9287 
B(  0-C ,  7-H ) :   0.9439 B(  1-C ,  2-C ) :   0.9426 B(  1-C , 11-H ) :   0.3405 
B(  1-C , 12-H ) :   0.9405 B(  1-C , 14-O ) :   0.4284 B(  2-C ,  3-C ) :   1.0244 
B(  2-C ,  4-O ) :   2.1237 B(  3-C ,  8-H ) :   0.9495 B(  3-C ,  9-H ) :   0.9450 
B(  3-C , 10-H ) :   0.9403 B( 11-H , 13-H ) :   0.3862 B( 13-H , 14-O ) :   0.6136 
B( 14-O , 15-H ) :   0.9834 

-------
TIMINGS
-------

Total SCF time: 0 days 0 hours 0 min 10 sec 

Total time                  ....      10.183 sec
Sum of individual times     ....       9.640 sec  ( 94.7%)

SCF preparation             ....       0.176 sec  (  1.7%)
Fock matrix formation       ....       9.185 sec  ( 90.2%)
  Startup                   ....       0.005 sec  (  0.1% of F)
  Split-RI-J                ....       0.790 sec  (  8.6% of F)
  Chain of spheres X        ....       6.867 sec  ( 74.8% of F)
  XC integration            ....       1.857 sec  ( 20.2% of F)
    XC Preparation          ....       0.000 sec  (  0.0% of XC)
    Basis function eval.    ....       0.591 sec  ( 31.8% of XC)
    Density eval.           ....       0.324 sec  ( 17.5% of XC)
    XC-Functional eval.     ....       0.109 sec  (  5.9% of XC)
    XC-Potential eval.      ....       0.350 sec  ( 18.8% of XC)
Diagonalization             ....       0.000 sec  (  0.0%)
Density matrix formation    ....       0.035 sec  (  0.3%)
Total Energy calculation    ....       0.019 sec  (  0.2%)
Population analysis         ....       0.020 sec  (  0.2%)
Orbital Transformation      ....       0.021 sec  (  0.2%)
Orbital Orthonormalization  ....       0.000 sec  (  0.0%)
DIIS solution               ....       0.096 sec  (  0.9%)
SOSCF solution              ....       0.088 sec  (  0.9%)
Finished LeanSCF after  10.2 sec

Maximum memory used throughout the entire LEANSCF-calculation: 12.1 MB


-------------------------------------------------------------------------------
                          DFT DISPERSION CORRECTION                            
                                                                               
                              DFTD3 V3.1  Rev 1                                
                          USING Becke-Johnson damping                          
-------------------------------------------------------------------------------
The B3LYP functional is recognized
Active option DFTDOPT                   ...         4   

molecular C6(AA) [au] = 1912.645540 


            DFT-D V3
 parameters
 s6 scaling factor         :     1.0000 
 a1 scaling factor         :     0.3981 
 s8 scaling factor         :     1.9889 
 a2 scaling factor         :     4.4211 
 ad hoc parameters k1-k3   :    16.0000     1.3333    -4.0000 

 Edisp/kcal,au: -13.660946307214  -0.021770101352 
 E6   /kcal   :  -6.783377249 
 E8   /kcal   :  -6.877569058 
 % E8         :  50.344748476 

-------------------------   ----------------
Dispersion correction           -0.021770101
-------------------------   ----------------


-------------------------   --------------------
FINAL SINGLE POINT ENERGY      -308.324850382599
-------------------------   --------------------



           ************************************************************
           *        Program running with 6 parallel MPI-processes     *
           *              working on a common directory               *
           ************************************************************
------------------------------------------------------------------------------
                         ORCA SCF GRADIENT CALCULATION
------------------------------------------------------------------------------

Nuc. rep. gradient        (SHARK) ... done (  0.0 sec)
HCore & Overlap gradient  (SHARK) ... done (  0.0 sec)
Split-RIJ-J gradient      (SHARK) ... done (  0.2 sec)
done (  4.0 sec)
XC gradient                       ... done (  0.9 sec)
Dispersion correction             ... done (  0.0 sec)

-------------------
DISPERSION GRADIENT
-------------------

   1   C   :    0.000651896    0.000144387   -0.000042748
   2   C   :   -0.000015615    0.000287670    0.000068817
   3   C   :   -0.000341650   -0.000080678   -0.000432191
   4   C   :   -0.000275289   -0.000486948   -0.000320865
   5   O   :   -0.000355982    0.000187747   -0.000409161
   6   H   :    0.000307283    0.000080711    0.000009763
   7   H   :    0.000345422    0.000057946   -0.000074548
   8   H   :    0.000387431   -0.000085474    0.000068638
   9   H   :    0.000008201   -0.000366787   -0.000105764
  10   H   :   -0.000074683   -0.000212357   -0.000141165
  11   H   :   -0.000165967   -0.000296502   -0.000051372
  12   H   :   -0.000103268    0.000313563    0.000343449
  13   H   :   -0.000004595    0.000255062   -0.000062400
  14   H   :   -0.000167707   -0.000008686    0.000248853
  15   O   :   -0.000088682    0.000318492    0.000460362
  16   H   :   -0.000106798   -0.000108145    0.000440330

Difference to translation invariance:
           :    0.0000000000   -0.0000000000    0.0000000000

Difference to rotation invariance:
           :    0.0000000000   -0.0000000000    0.0000000000

Norm of the Dispersion gradient    ...    0.0018002167
RMS gradient                       ...    0.0002598389
MAX gradient                       ...    0.0006518964

------------------
CARTESIAN GRADIENT
------------------

   1   C   :   -0.000063022    0.000121840   -0.000159186
   2   C   :    0.000037970   -0.000121291    0.000032148
   3   C   :    0.000086141   -0.000001596    0.000012574
   4   C   :   -0.000066190    0.000011050    0.000041208
   5   O   :    0.000037420   -0.000053547    0.000073244
   6   H   :    0.000069694   -0.000048317   -0.000047864
   7   H   :    0.000010728    0.000034315    0.000034208
   8   H   :   -0.000001544   -0.000011941   -0.000029358
   9   H   :   -0.000071419   -0.000014371   -0.000046275
  10   H   :    0.000045510   -0.000000268    0.000059318
  11   H   :    0.000032315    0.000055130    0.000009304
  12   H   :   -0.000134525   -0.000017793   -0.000006763
  13   H   :    0.000097849    0.000082425    0.000038345
  14   H   :    0.000052143    0.000076017    0.000067873
  15   O   :   -0.000103979   -0.000162749   -0.000057509
  16   H   :   -0.000029091    0.000051097   -0.000021268

Difference to translation invariance:
           :   -0.0000000002    0.0000000000   -0.0000000001

Difference to rotation invariance:
           :    0.0000709103    0.0000943851    0.0000489189

Norm of the Cartesian gradient     ...    0.0004569871
RMS gradient                       ...    0.0000659604
MAX gradient                       ...    0.0001627494

-------
TIMINGS
-------

Total SCF gradient time     ....        5.262 sec

Densities                   ....       0.001 sec  (  0.0%)
One electron gradient       ....       0.043 sec  (  0.8%)
RI-J Coulomb gradient       ....       0.241 sec  (  4.6%)
COSX gradient               ....       4.037 sec  ( 76.7%)
XC gradient                 ....       0.890 sec  ( 16.9%)

Maximum memory used throughout the entire SCFGRAD-calculation: 28.5 MB


           ************************************************************
           *        Program running with 6 parallel MPI-processes     *
           *              working on a common directory               *
           ************************************************************

------------------------------------------------------------------------------
                              ORCA PROPERTY CALCULATIONS
------------------------------------------------------------------------------

GBWName                                 ... orca.gbw
Number of atoms                         ...     16
Number of basis functions               ...    134
Max core memory                         ...   4096 MB

Electric properties:
Dipole moment                           ... YES
Quadrupole moment                       ...  NO
Static polarizability (Dipole/Dipole)   ...  NO
Static polarizability (Dipole/Quad.)    ...  NO
Static polarizability (Quad./Quad.)     ...  NO
Static polarizability (Velocity)        ...  NO
Static hyperpolarizability              ...  NO

Atomic electric properties:
Dipole moment                           ...  NO
Quadrupole moment                       ...  NO
Static polarizability                   ...  NO

Choice of electric origin               ... Center of mass
Position of electric origin             ...    -0.795318     0.132449    -0.545079

General magnetic properties:
Magnetizability                         ...  NO

EPR properties:
g-Tensor (aka g-matrix)                 ...  NO
Zero-Field splitting spin-orbit         ...  NO
Zero-field splitting spin-spin          ...  NO
Hyperfine couplings                     ...  NO (   0 nuclei)
Quadrupole couplings                    ...  NO (   0 nuclei)
Contact density                         ...  NO (   0 nuclei)

NMR properties:
Chemical shifts                         ...  NO (   0 nuclei)
Spin-rotation constants                 ...  NO (   0 nuclei)
Spin-spin couplings                     ...  NO (   0 nuclei,    0 pairs)

Choice of magnetic origin               ... GIAO
Position of magnetic origin             ...     0.000000     0.000000     0.000000

Properties with geometric perturbations:
SCF Hessian                             ...  NO
IR spectrum                             ...  NO
VCD spectrum                            ...  NO
X-ray spectroscopy properties:
SCF XES/XAS/RIXS spectra                ...  NO

SCF SOC stabilization energy            ...  NO
Diagonal Born-Oppenheimer correction    ...  NO

-------------
DIPOLE MOMENT
-------------

Method             : SCF
Type of density    : Electron Density
Multiplicity       :   1
Irrep              :   0
Energy             :  -308.3030802812461388 Eh
Basis              : AO
                                X                 Y                 Z
Electronic contribution:     -4.899013429      -0.222765628      -4.945419399
Nuclear contribution   :      6.266270021      -0.973573609       4.856454316
                        -----------------------------------------
Total Dipole Moment    :      1.367256592      -1.196339237      -0.088965082
                        -----------------------------------------
Magnitude (a.u.)       :      1.818937312
Magnitude (Debye)      :      4.623371222



--------------------
Rotational spectrum 
--------------------
 
Rotational constants in cm-1:             0.123185             0.084913             0.077445 
Rotational constants in MHz :          3693.007632          2545.627162          2321.729126 

Dipole components along the rotational axes: 
x,y,z [a.u.] :     0.499064     0.816513    -1.546859 
x,y,z [Debye]:     1.268521     2.075412    -3.931804 

 

Dipole moment calculation done in   0.0 sec 

Maximum memory used throughout the entire PROP-calculation: 6.7 MB

--------------------------------
SUGGESTED CITATIONS FOR THIS RUN
--------------------------------

Below you find a list of papers that are relevant to this ORCA run
We neither can nor want to force you to cite these papers, but we appreciate if you do
You receive ORCA, which is the product of decades of hard work by many enthusiastic individuals, for free
The only thing we kindly ask in return is that you cite our papers,
We deeply appreciate it, if you show your appreciation for ORCA by not just citing the generic ORCA reference.

Please note that relegating all ORCA citations to the supporting information does *not* help us.
SI sections are not indexed - citations you put there will not count into any citation statistics
But we need these citations in order to attract the funding resources that allow us to do what we are doing

Therefore, if you are a happy ORCA user, please consider citing a few of the papers listed below in the main body of your paper

In addition to the list printed below, the program has created the file orca.bibtex that contains the list in bibtex format
You can import this file easily into all common literature databanks and citation aid programs


List of essential papers. We consider these as the minimum necessary citations

  1. Neese, F.
     Software update: the ORCA program system, version 6.0
     WIRES Comput. Molec. Sci. 2025 15(1), e70019
     doi.org/10.1002/wcms.7019

List of papers to cite with high priority. The work reported in these papers was absolutely
necessary for this run to complete.
Our perspective: the developers of density functionals and basis sets usually get cited in chemistry papers
Good! But without the algorithms to do something with them, the functionals or basis sets would not do anything.
Hence, in our opinion, the algorithm design and method developments papers are equally worthy of getting cited

  1. Neese, F.
     An improvement of the resolution of the identity approximation for the formation of the Coulomb matrix
     J. Comp. Chem. 2003 24(14), 1740-1747
     doi.org/10.1002/jcc.10318
  2. Neese, F.; Wennmohs, F.; Hansen, A.; Becker, U.
     Efficient, approximate and parallel Hartree-Fock and hybrid DFT calculations. A 'chain-of-spheres' algorithm for the Hartree-Fock exchange
     Chem. Phys. 2009 356(1-3), 98-109
     doi.org/10.1016/j.chemphys.2008.10.036
  3. Grimme, S.; Antony, J.; Ehrlich, S.; Krieg, H.
     A consistent and accurate ab initio parametrization of density functional dispersion correction (DFT-D) for the 94 elements H-Pu
     J. Chem. Phys. 2010 132 , 154104
     doi.org/10.1063/1.3382344
  4. Grimme, S.; Ehrlich, S.; Goerigk, L.
     Effect of the damping function in dispersion corrected density functional theory
     J. Comput. Chem. 2011 32(7), 1456-1465
     doi.org/10.1002/jcc.21759
  5. Helmich-Paris, B.; de Souza, B.; Neese, F.; Izsák, R.
     An improved chain of spheres for exchange algorithm
     J. Chem. Phys. 2021 155(10), 104109
     doi.org/10.1063/5.0058766
  6. Neese, F.
     The SHARK Integral Generation and Digestion System
     J. Comp. Chem. 2022 44(3), 381
     doi.org/10.1002/jcc.26942

List of suggested additional citations. These are papers that are important in the 'surrounding' of 
of this run, or papers that preceded the highly important papers. If you like your results we are grateful for a citation.

  1. Izsak, R.; Neese, F.
     An overlap fitted chain of spheres exchange method
     J. Chem. Phys. 2011 135 , 144105
     doi.org/10.1063/1.3646921
  2. Izsak, R.; Hansen, A.; Neese, F.
     The resolution of identity and chain of spheres approximations for the LPNO-CCSD singles Fock term
     Molec. Phys. 2012 110 , 2413-2417
     doi.org/10.1080/00268976.2012.687466
  3. Neese, F.
     The ORCA program system
     WIRES Comput. Molec. Sci. 2012 2(1), 73-78
     doi.org/10.1002/wcms.81
  4. Izsak, R.; Neese, F.; Klopper, W.
     Robust fitting techniques in the chain of spheres approximation to the Fock exchange: The role of the complementary space
     J. Chem. Phys. 2013 139 , 
     doi.org/10.1063/1.4819264
  5. Neese, F.
     Software update: the ORCA program system, version 4.0
     WIRES Comput. Molec. Sci. 2018 8(1), 1-6
     doi.org/10.1002/wcms.1327
  6. Neese, F.; Wennmohs, F.; Becker, U.; Riplinger, C.
     The ORCA quantum chemistry program package
     J. Chem. Phys. 2020 152(22), 224108
     doi.org/10.1063/5.0004608
  7. Neese, F.
     Software update: The ORCA program system—Version 5.0
     WIRES Comput. Molec. Sci. 2022 12(1), e1606
     doi.org/10.1002/wcms.1606

List of optional additional citations

  1. Neese, F.
     Approximate second-order SCF convergence for spin unrestricted wavefunctions
     Chem. Phys. Lett. 2000 325(1-3), 93-98
     doi.org/10.1016/s0009-2614(00)00662-x

Timings for individual modules:

Sum of individual times          ...       18.682 sec (=   0.311 min)
Startup calculation              ...        1.339 sec (=   0.022 min)   7.2 %
SCF iterations                   ...       11.182 sec (=   0.186 min)  59.9 %
Property calculations            ...        0.432 sec (=   0.007 min)   2.3 %
SCF Gradient evaluation          ...        5.729 sec (=   0.095 min)  30.7 %
                             ****ORCA TERMINATED NORMALLY****
TOTAL RUN TIME: 0 days 0 hours 0 minutes 19 seconds 259 msec
