
                                 *****************
                                 * O   R   C   A *
                                 *****************

                                            #,                                       
                                            ###                                      
                                            ####                                     
                                            #####                                    
                                            ######                                   
                                           ########,                                 
                                     ,,################,,,,,                         
                               ,,#################################,,                 
                          ,,##########################################,,             
                       ,#########################################, ''#####,          
                    ,#############################################,,   '####,        
                  ,##################################################,,,,####,       
                ,###########''''           ''''###############################       
              ,#####''   ,,,,##########,,,,          '''####'''          '####       
            ,##' ,,,,###########################,,,                        '##       
           ' ,,###''''                  '''############,,,                           
         ,,##''                                '''############,,,,        ,,,,,,###''
      ,#''                                            '''#######################'''  
     '                                                          ''''####''''         
             ,#######,   #######,   ,#######,      ##                                
            ,#'     '#,  ##    ##  ,#'     '#,    #''#        ,####,    ,#,          
            ##       ##  ##   ,#'  ##            #'  '#       #'       ,# #          
            ##       ##  #######   ##           ,######,      #####,      #          
            '#,     ,#'  ##    ##  '#,     ,#' ,#      #,     #,   #      #          
             '#######'   ##     ##  '#######'  #'      '#     '####' #    #          



                #########################################################
                #                        -***-                          #
                #          Department of theory and spectroscopy        #
                #                                                       #
                #                      Frank Neese                      #
                #                                                       #
                #     Directorship, Architecture, Infrastructure        #
                #                    SHARK, DRIVERS                     #
                #        Core code/Algorithms in most modules           #
                #                                                       #
                #        Max Planck Institute fuer Kohlenforschung      #
                #                Kaiser Wilhelm Platz 1                 #
                #                 D-45470 Muelheim/Ruhr                 #
                #                      Germany                          #
                #                                                       #
                #                  All rights reserved                  #
                #                        -***-                          #
                #########################################################


                         Program Version 6.1.0  -  RELEASE   -
                                (GIT: $679e74b$)
                          ($2025-06-10 18:02:51 +0200$)


 With contributions from (in alphabetic order):
[Max-Planck-Institut fuer Kohlenforschung]                               
  Daniel Aravena         : Magnetic Suceptibility                        
  Michael Atanasov       : Ab Initio Ligand Field Theory (pilot matlab implementation)
  Alexander A. Auer      : GIAO ZORA, VPT2 properties, NMR spectrum      
  Ute Becker             : All parallelization in ORCA, NUMFREQ, NUMCALC 
  Giovanni Bistoni       : ED, misc. LED, open-shell LED, HFLD           
  Dmytro Bykov           : pre 5.0 version of the SCF Hessian            
  Marcos Casanova-Páez   : Triplet and SCS-CIS(D). UHF-(DLPNO)-IP/EA/STEOM-CCSD. UHF-CVS-IP/STEOM-CCSD   
  Vijay G. Chilkuri      : MRCI spin determinant printing, contributions to CSF-ICE 
  Pauline Colinet        : FMM embedding                                 
  Dipayan Datta          : RHF DLPNO-CCSD density                        
  Achintya Kumar Dutta   : EOM-CC, STEOM-CC                              
  Nicolas Foglia         : Exact transition moments, OPA infrastructure, MCD improvements    
  Dmitry Ganyushin       : Spin-Orbit,Spin-Spin,Magnetic field MRCI      
  Miquel Garcia-Rates    : C-PCM and meta-GGA Hessian, CCSD/C-PCM, Gaussian charge scheme 
  Tiago L. C. Gouveia    : GS-ROHF, GS-ROCIS                             
  Yang Guo               : DLPNO-NEVPT2, F12-NEVPT2, CIM, IAO-localization        
  Andreas Hansen         : Spin unrestricted coupled pair/coupled cluster methods 
  Ingolf Harden          : AUTO-CI MPn and infrastructure                
  Benjamin Helmich-Paris : MC-RPA, TRAH-(SCF,CASSCF), AVAS, COSX integrals, SCF dyn. polar., MC-PDFT, srDFT 
  Lee Huntington         : MR-EOM, pCC                                   
  Robert Izsak           : Overlap fitted RIJCOSX, COSX-SCS-MP3, EOM     
  Riya Kayal             : Wick's Theorem for AUTO-CI, AUTO-CI UHF-CCSDT 
  Emily Kempfer          : AUTO-CI RHF CISDT and CCSDT, approximate NEVPT4
  Christian Kollmar      : KDIIS, OOCD, Brueckner-CCSD(T), CCSD density, CASPT2, CASPT2-K, improved NEVPT2 
  Axel Koslowski         : Symmetry handling                             
  Simone Kossmann        : meta-GGA functionals, TD-DFT gradient, OOMP2, (MP2 Hessian; deprecated post 5.0) 
  Lucas Lang             : DCDCAS, Hyperfine gauge corrections, ICE-SOC+SSC
  Marvin Lechner         : AUTO-CI (C++ implementation), FIC-MRCC        
  Spencer Leger          : CASSCF response                               
  Dagmar Lenk            : GEPOL surface, SMD, ORCA-2-JSON               
  Dimitrios Liakos       : Extrapolation schemes; Compound Job, Property file
  Dimitrios Manganas     : Further ROCIS development; embedding schemes. LFT, Crystal Embedding 
  Dimitrios Pantazis     : SARC Basis sets                               
  Anastasios Papadopoulos: AUTO-CI, single reference methods and gradients 
  Taras Petrenko         : pre 6.0 DFT Hessian and TD-DFT gradient,  ECA, NRVS 
  Petra Pikulova         : Analytic Raman intensities                    
  Peter Pinski           : DLPNO-MP2, DLPNO-MP2 Gradient                 
  Shashank Vittal Rao    : ES-AILFT, MagRelax                            
  Christoph Reimann      : Effective Core Potentials                     
  Marius Retegan         : Local ZFS, SOC                                
  Christoph Riplinger    : Optimizer, TS searches, QM/MM, DLPNO-CCSD(T), (RO)-DLPNO pert. Triples 
  Michael Roemelt        : Original ROCIS implementation, recursive CI coupling coefficients
  Masaaki Saitow         : Open-shell DLPNO-CCSD energy and density      
  Barbara Sandhoefer     : DKH picture change effects                    
  Yorick L. A. Schmerwitz: GMF and freeze-and-release deltaSCF, NEB S-IDPP initial path                    
  Kantharuban Sivalingam : CASSCF convergence/infrastructure, NEVPT2, NEVPT3, NEVPT4(SD), FIC-MRCI and CEPA variants
  Bernardo de Souza      : ESD, SOC TD-DFT                               
  Georgi L. Stoychev     : AutoAux, RI-MP2 NMR, DLPNO-MP2 response, X2C  
  Van Anh Tran           : RI-MP2 g-tensors                              
  Willem Van den Heuvel  : Paramagnetic NMR                              
  Zikuan Wang            : NOTCH, Electric field optimization            
  Frank Wennmohs         : Technical directorship and infrastructure     
  Hang Xu                : AUTO-CI-Response properties                   
                                                                         
[FACCTs GmbH]                                                            
  Markus Bursch, Nicolas Foglia, Miquel Garcia-Rates, Ingolf Harden, Hagen Neugebauer, Anastasios Papadopoulos, 
  Christoph Riplinger, Bernardo de Souza, Georgi L. Stoychev                                                    
                                                                 
  APM, various basis sets, CI-OPT, improved COSX, DLPNO-Multilevel,           
  DOCKER, DRACO, updates on ESD, Fragmentator, GOAT, IRC, LR-CPCM, L-BFGS, MBIS, meta-GGA TD-DFT gradient, ML-optimized integration grids, 
  MM, NACMEs, nearIR, NEB, NEB-TS, NL-DFT gradient (VV10), 2- and 3-layer-ONIOM, interface openCOSMO-RS, QMMM,   
  Crystal-QMMM, RESP, rigid body optimization, SF, symmetry and pop. for TD-DFT, various functionals, SOLVATOR                                   
                                                                         
[Other institutions]                                                     
  V. Asgeirsson          : NEB                                           
  Christoph Bannwarth    : sTDA-DFT, sTD-DFT, PBEh-3c, B97-3c, D3        
  Giovanni Bistoni       : ETS/NOCV, ADLD/ADEX, COVALED                  
  Martin Brehm           : Molecular dynamics                            
  Ronald Cardenas        : ETS/NOCV                                      
  Martina Colucci        : COVALED                                       
  Sebastian Ehlert       : rSCAN, r2SCAN, r2SCAN-3c, D4, dhf basis sets  
  Marvin Friede          : D4 for Fr, Ra, Ac-Lr                          
  Lars Goerigk           : TD-DFT with DH, B97 family of functionals     
  Stefan Grimme          : VdW corrections, initial TS optimization, DFT functionals, gCP, sTDA/sTD-DF 
  Waldemar Hujo          : DFT-NL                                        
  H. Jonsson             : NEB                                           
  Holger Kruse           : gCP                                           
  Marcel Mueller         : wB97X-3c, vDZP basis set                      
  Hagen Neugebauer       : wr2SCAN, Native XTB                           
  Gianluca Regni         : ADLD/ADEX                                     
  Tobias Risthaus        : pre 6.0 range-separated hybrid DFT and stability analysis
  Lukas Wittmann         : regularized MP2, r2SCAN double-hybrids, wr2SCAN        
                                                                         
We gratefully acknowledge several colleagues who have allowed us to      
interface, adapt or use parts of their codes:                            
  Ed Valeev, F. Pavosevic, A. Kumar             : LibInt (2-el integral package), F12 methods 
  Garnet Chan, S. Sharma, J. Yang, R. Olivares  : DMRG                   
  Ulf Ekstrom                                   : XCFun DFT Library      
  Mihaly Kallay                                 : mrcc  (arbitrary order and MRCC methods)
  Frank Weinhold                                : gennbo (NPA and NBO analysis)           
  Simon Mueller                                 : openCOSMO-RS                            
  Christopher J. Cramer and Donald G. Truhlar   : smd solvation model                     
  S Lehtola, MJT Oliveira, MAL Marques          : LibXC Library                           
  Liviu Ungur et al                             : ANISO software                          


 Your calculation uses the libint2 library for the computation of 2-el integrals
 For citations please refer to: http://libint.valeyev.net

 Your ORCA version has been built with support for libXC version: 7.0.0
 For citations please refer to: https://libxc.gitlab.io

 This ORCA versions uses:
   CBLAS   interface :  Fast vector & matrix operations
   LAPACKE interface :  Fast linear algebra routines
   SCALAPACK package :  Parallel linear algebra routines
   Shared memory     :  Shared parallel matrices
   BLAS/LAPACK       :  OpenBLAS 0.3.29  USE64BITINT DYNAMIC_ARCH NO_AFFINITY Zen SINGLE_THREADED
        Core in use  :  Zen
   Copyright (c) 2011-2014, The OpenBLAS Project


  ***********************************
  * Starting time: Wed Sep 10 13:38:17 2025
  * Host name:     wyk-Server
  * Process ID:    2308611
  * Working dir.:  /home/wyk/Documents/code/openQDC/MGMR/singlepointcalc/101/react
  ***********************************

Your calculation utilizes the atom-pairwise dispersion correction
with the Becke-Johnson damping scheme (D3BJ)


Warning: RI is on but no J-basis has been assigned. Assigning Def2/J (nothing to worry about!)
================================================================================

----- Orbital basis set information -----
Your calculation utilizes the basis: def2-SVP
   F. Weigend and R. Ahlrichs, Phys. Chem. Chem. Phys. 7, 3297 (2005).

----- AuxJ basis set information -----
Your calculation utilizes the auxiliary basis: def2/J
   H-Rn: F. Weigend, Phys. Chem. Chem. Phys. 8, 1057 (2006).
   Fr-Lr: K. Eichkorn, F. Weigend, O. Treutler, R. Ahlrichs; Theor. Chem. Acc. 97, 119 (1997).

================================================================================
                                        WARNINGS
                       Please study these warnings very carefully!
================================================================================


================================================================================
                                       INPUT FILE
================================================================================
NAME = orca.inp
|  1> ! B3LYP def2-SVP d3 EnGrad 
|  2> %pal nprocs 6 end 
|  3> *xyz 0 1 
|  4> C   -1.53531293490441 -1.0049248545321 -0.11195025771459
|  5> C   1.6982368710891 -0.67683052613097 0.07175590437584
|  6> C   -1.27782121457499 0.43991258028847 0.1928745994702
|  7> C   1.22747580825595 0.55701013572284 -0.17722743358917
|  8> C   -0.09875343654269 1.09258647274447 0.14807082775708
|  9> H   -1.56930334250249 -1.61323476606853 0.81078720250439
| 10> H   -2.51235114928731 -1.13110952717419 -0.606345812964
| 11> H   2.71422430113634 -0.95751797756874 -0.21915206758051
| 12> H   -0.75427133068811 -1.4347897643481 -0.75733068459753
| 13> H   1.1085271024345 -1.43228806504154 0.59623780588649
| 14> H   -2.15906199137251 1.03528156150832 0.46050367924996
| 15> H   1.9097733908796 1.27533193550699 -0.65082471944931
| 16> H   -0.12261905392298 2.17197079509305 0.34101494665114
| 17> *
| 18> 
| 19>                          ****END OF INPUT****
================================================================================

                     *******************************
                     * Energy+Gradient Calculation *
                     *******************************

---------------------------------
CARTESIAN COORDINATES (ANGSTROEM)
---------------------------------
  C     -1.535313   -1.004925   -0.111950
  C      1.698237   -0.676831    0.071756
  C     -1.277821    0.439913    0.192875
  C      1.227476    0.557010   -0.177227
  C     -0.098753    1.092586    0.148071
  H     -1.569303   -1.613235    0.810787
  H     -2.512351   -1.131110   -0.606346
  H      2.714224   -0.957518   -0.219152
  H     -0.754271   -1.434790   -0.757331
  H      1.108527   -1.432288    0.596238
  H     -2.159062    1.035282    0.460504
  H      1.909773    1.275332   -0.650825
  H     -0.122619    2.171971    0.341015

----------------------------
CARTESIAN COORDINATES (A.U.)
----------------------------
  NO LB      ZA    FRAG     MASS         X           Y           Z
   0 C     6.0000    0    12.011   -2.901321   -1.899033   -0.211555
   1 C     6.0000    0    12.011    3.209203   -1.279024    0.135599
   2 C     6.0000    0    12.011   -2.414732    0.831314    0.364480
   3 C     6.0000    0    12.011    2.319593    1.052597   -0.334911
   4 C     6.0000    0    12.011   -0.186617    2.064689    0.279813
   5 H     1.0000    0     1.008   -2.965554   -3.048572    1.532166
   6 H     1.0000    0     1.008   -4.747656   -2.137487   -1.145828
   7 H     1.0000    0     1.008    5.129141   -1.809447   -0.414137
   8 H     1.0000    0     1.008   -1.425366   -2.711360   -1.431148
   9 H     1.0000    0     1.008    2.094813   -2.706632    1.126726
  10 H     1.0000    0     1.008   -4.080036    1.956399    0.870226
  11 H     1.0000    0     1.008    3.608949    2.410028   -1.229880
  12 H     1.0000    0     1.008   -0.231716    4.104430    0.644425

--------------------------------
INTERNAL COORDINATES (ANGSTROEM)
--------------------------------
 C      0   0   0     0.000000000000     0.00000000     0.00000000
 C      1   0   0     3.255339950014     0.00000000     0.00000000
 C      1   2   0     1.498924745494    73.78393599     0.00000000
 C      2   1   3     1.343864375489    74.58077335   338.52530007
 C      3   1   2     1.348403282793   127.59114794    11.67476362
 H      1   2   3     1.105730851868    92.22870629   248.28474534
 H      1   2   3     1.102249159231   156.53745719   104.80046089
 H      2   1   3     1.093454778012   151.89052532   210.88859365
 H      1   2   3     1.100602436673    50.76937840   137.73531048
 H      2   1   3     1.092499413893    54.63600014   129.68350115
 H      3   1   2     1.096665334016   115.77824906   190.14308083
 H      4   2   1     1.098094070867   117.57074824   203.80399190
 H      5   3   1     1.096753170062   116.83971810   175.95994361

---------------------------
INTERNAL COORDINATES (A.U.)
---------------------------
 C      0   0   0     0.000000000000     0.00000000     0.00000000
 C      1   0   0     6.151700978340     0.00000000     0.00000000
 C      1   2   0     2.832557264342    73.78393599     0.00000000
 C      2   1   3     2.539535630807    74.58077335   338.52530007
 C      3   1   2     2.548112922559   127.59114794    11.67476362
 H      1   2   3     2.089528487859    92.22870629   248.28474534
 H      1   2   3     2.082949042291   156.53745719   104.80046089
 H      2   1   3     2.066330070270   151.89052532   210.88859365
 H      1   2   3     2.079837187639    50.76937840   137.73531048
 H      2   1   3     2.064524693727    54.63600014   129.68350115
 H      3   1   2     2.072397141856   115.77824906   190.14308083
 H      4   2   1     2.075097063221   117.57074824   203.80399190
 H      5   3   1     2.072563127927   116.83971810   175.95994361

---------------------
BASIS SET INFORMATION
---------------------
There are 2 groups of distinct atoms

 Group   1 Type C   : 7s4p1d contracted to 3s2p1d pattern {511/31/1}
 Group   2 Type H   : 4s1p contracted to 2s1p pattern {31/1}

Atom   0C    basis set group =>   1
Atom   1C    basis set group =>   1
Atom   2C    basis set group =>   1
Atom   3C    basis set group =>   1
Atom   4C    basis set group =>   1
Atom   5H    basis set group =>   2
Atom   6H    basis set group =>   2
Atom   7H    basis set group =>   2
Atom   8H    basis set group =>   2
Atom   9H    basis set group =>   2
Atom  10H    basis set group =>   2
Atom  11H    basis set group =>   2
Atom  12H    basis set group =>   2
---------------------------------
AUXILIARY/J BASIS SET INFORMATION
---------------------------------
There are 2 groups of distinct atoms

 Group   1 Type C   : 12s5p4d2f1g contracted to 6s4p3d1f1g pattern {711111/2111/211/2/1}
 Group   2 Type H   : 5s2p1d contracted to 3s1p1d pattern {311/2/1}

Atom   0C    basis set group =>   1
Atom   1C    basis set group =>   1
Atom   2C    basis set group =>   1
Atom   3C    basis set group =>   1
Atom   4C    basis set group =>   1
Atom   5H    basis set group =>   2
Atom   6H    basis set group =>   2
Atom   7H    basis set group =>   2
Atom   8H    basis set group =>   2
Atom   9H    basis set group =>   2
Atom  10H    basis set group =>   2
Atom  11H    basis set group =>   2
Atom  12H    basis set group =>   2


           ************************************************************
           *        Program running with 6 parallel MPI-processes     *
           *              working on a common directory               *
           ************************************************************
------------------------------------------------------------------------------
                             ORCA STARTUP CALCULATIONS
                           -- RI-GTO INTEGRALS CHOSEN --
------------------------------------------------------------------------------
------------------------------------------------------------------------------
                   ___                                                        
                  /   \      - P O W E R E D   B Y -                         
                 /     \                                                     
                 |  |  |   _    _      __       _____    __    __             
                 |  |  |  | |  | |    /  \     |  _  \  |  |  /  |          
                  \  \/   | |  | |   /    \    | | | |  |  | /  /          
                 / \  \   | |__| |  /  /\  \   | |_| |  |  |/  /          
                |  |  |   |  __  | /  /__\  \  |    /   |      \           
                |  |  |   | |  | | |   __   |  |    \   |  |\   \          
                \     /   | |  | | |  |  |  |  | |\  \  |  | \   \       
                 \___/    |_|  |_| |__|  |__|  |_| \__\ |__|  \__/        
                                                                              
                      - O R C A' S   B I G   F R I E N D -                    
                                      &                                       
                       - I N T E G R A L  F E E D E R -                       
                                                                              
 v1 FN, 2020, v2 2021, v3 2022-2024                                           
------------------------------------------------------------------------------


----------------------
SHARK INTEGRAL PACKAGE
----------------------

Number of atoms                             ...     13
Number of basis functions                   ...    110
Number of shells                            ...     54
Maximum angular momentum                    ...      2
Integral batch strategy                     ... SHARK/LIBINT Hybrid
RI-J (if used) integral strategy            ... SPLIT-RIJ (Revised 2003 algorithm where possible)
Printlevel                                  ...      1
Contraction scheme used                     ... SEGMENTED contraction
Prescreening option                         ... SCHWARTZ
   Thresh                                   ... 2.500e-11
   Tcut                                     ... 2.500e-12
   Tpresel                                  ... 2.500e-12 
Coulomb Range Separation                    ... NOT USED
Exchange Range Separation                   ... NOT USED
Multipole approximations                    ... NOT USED
Finite Nucleus Model                        ... NOT USED
CABS basis                                  ... NOT available
Auxiliary Coulomb fitting basis             ... AVAILABLE
   # of basis functions in Aux-J            ...    333
   # of shells in Aux-J                     ...    115
   Maximum angular momentum in Aux-J        ...      4
Auxiliary J/K fitting basis                 ... NOT available
Auxiliary Correlation fitting basis         ... NOT available
Auxiliary 'external' fitting basis          ... NOT available

Checking pre-screening integrals            ... done (  0.0 sec) Dimension = 54
   => SHARK Basis and OBASIS are compatible. Storing Pre-screening
Shell pair information
Shell pair cut-off parameter TPreSel        ...   2.5e-12
Total number of shell pairs                 ...      1485
Shell pairs after pre-screening             ...      1458
Total number of primitive shell pairs       ...      5139
Primitive shell pairs kept                  ...      4004
          la=0 lb=0:    486 shell pairs
          la=1 lb=0:    545 shell pairs
          la=1 lb=1:    167 shell pairs
          la=2 lb=0:    155 shell pairs
          la=2 lb=1:     90 shell pairs
          la=2 lb=2:     15 shell pairs

Checking whether 4 symmetric matrices of dimension 110 fit in memory
:Max Core in MB      =   4096.00
 MB in use           =      5.16
 MB left             =   4090.84
 MB needed           =      0.19
 Data fit in memory  = YES
Calculating RI/J V-Matrix + Cholesky decomp.... done (  0.0 sec)
Calculating Nuclear repulsion               ... done (  0.0 sec) ENN=    158.275825495537 Eh

Diagonalization of the overlap matrix:
Smallest eigenvalue                        ... 1.490e-03
Time for diagonalization                   ...    0.002 sec
Threshold for overlap eigenvalues          ... 1.000e-07
Number of eigenvalues below threshold      ... 0
Time for construction of square roots      ...    0.001 sec
Total time needed                          ...    0.004 sec

-------------------
DFT GRID GENERATION
-------------------

General Integration Accuracy     IntAcc      ... 4.388
Radial Grid Type                 RadialGrid  ... OptM3 with GC (2021)
Angular Grid (max. ang.)         AngularGrid ... 4 (Lebedev-302)
Angular grid pruning method      GridPruning ... 4 (adaptive)
Weight generation scheme         WeightScheme... mBecke (2022)
Basis function cutoff            BFCut       ... 1.0000e-11
Integration weight cutoff        WCut        ... 1.0000e-14
Partially contracted basis set               ... off
Rotationally invariant grid construction     ... off
Angular grids for H and He will be reduced by one unit

Total number of grid points                  ...    56095
Total number of batches                      ...      885
Average number of points per batch           ...       63
Average number of grid points per atom       ...     4315

--------------------
COSX GRID GENERATION
--------------------

GRIDX 1
-------
General Integration Accuracy     IntAcc      ... 3.816
Radial Grid Type                 RadialGrid  ... OptM3 with GC (2021)
Angular Grid (max. ang.)         AngularGrid ... 1 (Lebedev-50)
Angular grid pruning method      GridPruning ... 4 (adaptive)
Weight generation scheme         WeightScheme... mBecke (2022)
Basis function cutoff            BFCut       ... 1.0000e-11
Integration weight cutoff        WCut        ... 1.0000e-14
Partially contracted basis set               ... on
Rotationally invariant grid construction     ... off
Angular grids for H and He will be reduced by one unit

Total number of grid points                  ...     7235
Total number of batches                      ...       64
Average number of points per batch           ...      113
Average number of grid points per atom       ...      557
UseSFitting                                  ... on

GRIDX 2
-------
General Integration Accuracy     IntAcc      ... 4.020
Radial Grid Type                 RadialGrid  ... OptM3 with GC (2021)
Angular Grid (max. ang.)         AngularGrid ... 2 (Lebedev-110)
Angular grid pruning method      GridPruning ... 4 (adaptive)
Weight generation scheme         WeightScheme... mBecke (2022)
Basis function cutoff            BFCut       ... 1.0000e-11
Integration weight cutoff        WCut        ... 1.0000e-14
Partially contracted basis set               ... on
Rotationally invariant grid construction     ... off
Angular grids for H and He will be reduced by one unit

Total number of grid points                  ...    15263
Total number of batches                      ...      124
Average number of points per batch           ...      123
Average number of grid points per atom       ...     1174
UseSFitting                                  ... on

GRIDX 3
-------
General Integration Accuracy     IntAcc      ... 4.338
Radial Grid Type                 RadialGrid  ... OptM3 with GC (2021)
Angular Grid (max. ang.)         AngularGrid ... 3 (Lebedev-194)
Angular grid pruning method      GridPruning ... 4 (adaptive)
Weight generation scheme         WeightScheme... mBecke (2022)
Basis function cutoff            BFCut       ... 1.0000e-11
Integration weight cutoff        WCut        ... 1.0000e-14
Partially contracted basis set               ... on
Rotationally invariant grid construction     ... off
Angular grids for H and He will be reduced by one unit

Total number of grid points                  ...    33441
Total number of batches                      ...      270
Average number of points per batch           ...      123
Average number of grid points per atom       ...     2572
UseSFitting                                  ... on
Grids setup in   0.7 sec
Initializing property integral containers    ... done (  0.0 sec)

SHARK setup successfully completed in   0.8 seconds

Maximum memory used throughout the entire STARTUP-calculation: 15.5 MB


           ************************************************************
           *        Program running with 6 parallel MPI-processes     *
           *              working on a common directory               *
           ************************************************************
-------------------------------------------------------------------------------
                                 ORCA GUESS
                   Start orbitals & Density for SCF / CASSCF
-------------------------------------------------------------------------------

------------
SCF SETTINGS
------------
Hamiltonian:
 Density Functional     Method          .... DFT(GTOs)
 Exchange Functional    Exchange        .... B88
   X-Alpha parameter    XAlpha          ....  0.666667
   Becke's b parameter  XBeta           ....  0.004200
 Correlation Functional Correlation     .... LYP
 LDA part of GGA corr.  LDAOpt          .... VWN-5
 Gradients option       PostSCFGGA      .... off
 Hybrid DFT is turned on
   Fraction HF Exchange ScalHFX         ....  0.200000
   Scaling of DF-GGA-X  ScalDFX         ....  0.720000
   Scaling of DF-GGA-C  ScalDFC         ....  0.810000
   Scaling of DF-LDA-C  ScalLDAC        ....  1.000000
   Perturbative correction              ....  0.000000
   NL short-range parameter             ....  4.800000
 RI-approximation to the Coulomb term is turned on
   Number of AuxJ basis functions       .... 333
   RIJ-COSX (HFX calculated with COS-X)).... on


General Settings:
 Integral files         IntName         .... orca
 Hartree-Fock type      HFTyp           .... RHF
 Total Charge           Charge          ....    0
 Multiplicity           Mult            ....    1
 Number of Electrons    NEL             ....   38
 Basis Dimension        Dim             ....  110
 Nuclear Repulsion      ENuc            ....    158.2758254955 Eh

Convergence Acceleration:
 AO-DIIS                CNVDIIS         .... on
   Start iteration      DIISMaxIt       ....    12
   Startup error        DIISStart       ....  0.200000
   # of expansion vecs  DIISMaxEq       ....     5
   Bias factor          DIISBfac        ....   1.050
   Max. coefficient     DIISMaxC        ....  10.000
 MO-DIIS                CNVKDIIS        .... off
 Trust-Rad. Augm. Hess. CNVTRAH         .... auto
   Auto Start mean grad. ratio tolernc. ....  1.125000
   Auto Start start iteration           ....    50
   Auto Start num. interpolation iter.  ....    10
   Max. Number of Micro iterations      ....    24
   Max. Number of Macro iterations      .... Maxiter - #DIIS iter
   Number of Davidson start vectors     ....     2
   Converg. threshold    (grad. norm)   ....   1.000e-05
   Grad. Scal. Fac. for Micro threshold ....   0.100
   Minimum threshold for Micro iter.    ....   1.000e-02
   NR start threshold (gradient norm)   ....   1.000e-04
   Initial trust radius                 ....   0.400
   Minimum AH scaling param. (alpha)    ....   1.000
   Maximum AH scaling param. (alpha)    .... 1000.000
   Quad. conv. algorithm                .... NR
   White noise on init. David. guess    .... on
   Maximum white noise                  ....   0.010
   Pseudo random numbers                .... off
   Inactive MOs                         .... canonical
   Orbital update algorithm             .... Taylor
   Preconditioner                       .... Diag
   Full preconditioner red. dimension   ....   250
 SOSCF                 CNVSOSCF           .... on
   Start iteration     SOSCFMaxIt         ....   150
   Startup grad/error  SOSCFStart         ....  0.003300
   Hessian update      SOSCFHessUp        .... L-BFGS
   Autom. constraints  SOSCFAutoConstrain .... off
 Level Shifting         CNVShift        .... on
   Level shift para.    LevelShift      ....    0.2500
   Turn off err/grad.   ShiftErr        ....    0.0010
 Zerner damping         CNVZerner       .... off
 Static damping         CNVDamp         .... on
   Fraction old density DampFac         ....    0.7000
   Max. Damping (<1)    DampMax         ....    0.9800
   Min. Damping (>=0)   DampMin         ....    0.0000
   Turn off err/grad.   DampErr         ....    0.1000

SCF Procedure:
 Maximum # iterations   MaxIter         ....   125
 SCF integral mode      SCFMode         .... Direct
   Integral package                     .... SHARK and LIBINT hybrid scheme
 Reset frequency        DirectResetFreq ....    20
 Integral Threshold     Thresh          ....  2.500e-11 Eh
 Primitive CutOff       TCut            ....  2.500e-12 Eh

Convergence Tolerance:
 Convergence Check Mode ConvCheckMode   .... Total+1el-Energy
 Convergence forced     ConvForced      .... 0
 Energy Change          TolE            ....  1.000e-08 Eh
 1-El. energy change                    ....  1.000e-05 Eh
 Orbital Gradient       TolG            ....  1.000e-05
 Orbital Rotation angle TolX            ....  1.000e-05
 DIIS Error             TolErr          ....  5.000e-07

------------------------------
INITIAL GUESS: MODEL POTENTIAL
------------------------------
Loading Hartree-Fock densities                     ... done
Calculating cut-offs                               ... done
Initializing the effective Hamiltonian             ... done
Setting up the integral package (SHARK)            ... done
Starting the Coulomb interaction                   ... done (   0.0 sec)
Making the grid                                    ... done (   0.1 sec)
Mapping shells                                     ... done
Starting the XC term evaluation                    ... done (   0.0 sec)
  promolecular density results
     # of electrons  =     37.992620318
     EX              =    -28.013303691
     EC              =     -1.208872955
     EX+EC           =    -29.222176646
Transforming the Hamiltonian                       ... done (   0.0 sec)
Diagonalizing the Hamiltonian                      ... done (   0.0 sec)
Back transforming the eigenvectors                 ... done (   0.0 sec)
Now organizing SCF variables                       ... done
                      ------------------
                      INITIAL GUESS DONE (   0.2 sec)
                      ------------------
             **** ENERGY FILE WAS UPDATED (orca.en.tmp) ****
Finished Guess after   0.3 sec
Maximum memory used throughout the entire GUESS-calculation: 7.6 MB


           ************************************************************
           *        Program running with 6 parallel MPI-processes     *
           *              working on a common directory               *
           ************************************************************

-------------------------------------------------------------------------------------------
                                      ORCA LEAN-SCF
                              memory conserving SCF solver
-------------------------------------------------------------------------------------------

----------------------------------------D-I-I-S--------------------------------------------
Iteration    Energy (Eh)           Delta-E    RMSDP     MaxDP     DIISErr   Damp  Time(sec)
-------------------------------------------------------------------------------------------
               ***  Starting incremental Fock matrix formation  ***
    1    -194.8763244671801829     0.00e+00  8.60e-03  7.39e-02  1.64e-01  0.700   0.6
    2    -194.9438378326018722    -6.75e-02  6.35e-03  4.60e-02  8.76e-02  0.700   0.4
                               ***Turning on AO-DIIS***
    3    -194.9733715735285671    -2.95e-02  2.70e-03  1.28e-02  3.51e-02  0.700   0.4
    4    -194.9901310403800210    -1.68e-02  4.85e-03  1.96e-02  1.88e-02  0.000   0.3
    5    -195.0257341302906582    -3.56e-02  7.60e-04  3.67e-03  5.07e-03  0.000   0.4
                              *** Initializing SOSCF ***
---------------------------------------S-O-S-C-F--------------------------------------
Iteration    Energy (Eh)           Delta-E    RMSDP     MaxDP     MaxGrad    Time(sec)
--------------------------------------------------------------------------------------
    6    -195.0259236563614706    -1.90e-04  2.87e-04  1.37e-03  1.55e-03     0.3
               *** Restarting incremental Fock matrix formation ***
    7    -195.0259457077642935    -2.21e-05  1.86e-04  8.75e-04  1.45e-04     0.6
    8    -195.0259459919528524    -2.84e-07  5.64e-05  6.26e-04  2.53e-04     0.5
    9    -195.0259471056587302    -1.11e-06  4.23e-05  2.33e-04  8.61e-05     0.4
   10    -195.0259470910339985     1.46e-08  2.00e-05  1.34e-04  6.18e-05     0.4
   11    -195.0259472111381172    -1.20e-07  3.57e-06  1.57e-05  5.19e-06     0.4
   12    -195.0259472108399166     2.98e-10  1.42e-06  8.00e-06  2.91e-06     0.4
                 **** Energy Check signals convergence ****

               *****************************************************
               *                     SUCCESS                       *
               *           SCF CONVERGED AFTER  12 CYCLES          *
               *****************************************************

Recomputing exchange energy using gridx3       ... done (    0.773 sec)
Old exchange energy                            :     -5.726116981 Eh
New exchange energy                            :     -5.726143442 Eh
Exchange energy change after final integration :     -0.000026461 Eh
Total energy after final integration           :   -195.025973673 Eh
             **** ENERGY FILE WAS UPDATED (orca.en.tmp) ****

----------------
TOTAL SCF ENERGY
----------------

Total Energy       :       -195.02597367266446 Eh           -5306.92654 eV

Components:
Nuclear Repulsion  :        158.27582549553662 Eh            4306.90417 eV
Electronic Energy  :       -353.30177270709083 Eh           -9613.82999 eV
One Electron Energy:       -574.12609645895100 Eh          -15622.76533 eV
Two Electron Energy:        220.82432375186016 Eh            6008.93534 eV

Virial components:
Potential Energy   :       -387.70121593468537 Eh          -10549.88643 eV
Kinetic Energy     :        192.67524226202093 Eh            5242.95989 eV
Virial Ratio       :          2.01220048503921

DFT components:
N(Alpha)           :       19.000006573055 electrons
N(Beta)            :       19.000006573055 electrons
N(Total)           :       38.000013146111 electrons
E(X)               :      -22.702435740831 Eh       
E(C)               :       -1.439572737735 Eh       
E(XC)              :      -24.142008478566 Eh       

---------------
SCF CONVERGENCE
---------------

  Last Energy change         ...   -2.9820e-10  Tolerance :   1.0000e-08
  Last MAX-Density change    ...    7.9954e-06  Tolerance :   1.0000e-07
  Last RMS-Density change    ...    1.4196e-06  Tolerance :   5.0000e-09
  Last DIIS Error            ...    1.5457e-03  Tolerance :   5.0000e-07
  Last Orbital Gradient      ...    2.9113e-06  Tolerance :   1.0000e-05
  Last Orbital Rotation      ...    4.9875e-06  Tolerance :   1.0000e-05


----------------
ORBITAL ENERGIES
----------------

  NO   OCC          E(Eh)            E(eV) 
   0   2.0000     -10.189295      -277.2648 
   1   2.0000     -10.188146      -277.2335 
   2   2.0000     -10.182213      -277.0721 
   3   2.0000     -10.182184      -277.0713 
   4   2.0000     -10.181760      -277.0598 
   5   2.0000      -0.797084       -21.6898 
   6   2.0000      -0.738727       -20.1018 
   7   2.0000      -0.676429       -18.4066 
   8   2.0000      -0.587334       -15.9822 
   9   2.0000      -0.511351       -13.9146 
  10   2.0000      -0.480018       -13.0619 
  11   2.0000      -0.435072       -11.8389 
  12   2.0000      -0.419631       -11.4187 
  13   2.0000      -0.407521       -11.0892 
  14   2.0000      -0.380938       -10.3659 
  15   2.0000      -0.358529        -9.7561 
  16   2.0000      -0.331251        -9.0138 
  17   2.0000      -0.299332        -8.1452 
  18   2.0000      -0.227727        -6.1968 
  19   0.0000      -0.024698        -0.6721 
  20   0.0000       0.060762         1.6534 
  21   0.0000       0.074383         2.0241 
  22   0.0000       0.082877         2.2552 
  23   0.0000       0.102527         2.7899 
  24   0.0000       0.130701         3.5566 
  25   0.0000       0.138576         3.7709 
  26   0.0000       0.153088         4.1657 
  27   0.0000       0.161236         4.3875 
  28   0.0000       0.169986         4.6256 
  29   0.0000       0.240878         6.5546 
*Only the first 10 virtual orbitals were printed.

                    ********************************
                    * MULLIKEN POPULATION ANALYSIS *
                    ********************************

-----------------------
MULLIKEN ATOMIC CHARGES
-----------------------
   0 C :    0.059646
   1 C :   -0.032222
   2 C :   -0.100515
   3 C :   -0.025440
   4 C :    0.003069
   5 H :    0.030382
   6 H :    0.012267
   7 H :    0.020296
   8 H :    0.025565
   9 H :    0.018676
  10 H :   -0.002679
  11 H :   -0.001064
  12 H :   -0.007981
Sum of atomic charges:    0.0000000

--------------------------------
MULLIKEN REDUCED ORBITAL CHARGES
--------------------------------
  0 C s       :     2.943156  s :     2.943156
      pz      :     0.998862  p :     2.968497
      px      :     0.999731
      py      :     0.969904
      dz2     :     0.003390  d :     0.028701
      dxz     :     0.005686
      dyz     :     0.007612
      dx2y2   :     0.007772
      dxy     :     0.004240

  1 C s       :     3.114528  s :     3.114528
      pz      :     0.980698  p :     2.891330
      px      :     0.938637
      py      :     0.971996
      dz2     :     0.001720  d :     0.026364
      dxz     :     0.002292
      dyz     :     0.005814
      dx2y2   :     0.008125
      dxy     :     0.008412

  2 C s       :     3.154323  s :     3.154323
      pz      :     0.972535  p :     2.910738
      px      :     0.981515
      py      :     0.956688
      dz2     :     0.002249  d :     0.035454
      dxz     :     0.005189
      dyz     :     0.005182
      dx2y2   :     0.010161
      dxy     :     0.012674

  3 C s       :     3.125564  s :     3.125564
      pz      :     0.965497  p :     2.864063
      px      :     0.955439
      py      :     0.943127
      dz2     :     0.002665  d :     0.035814
      dxz     :     0.005193
      dyz     :     0.006252
      dx2y2   :     0.009379
      dxy     :     0.012324

  4 C s       :     3.096894  s :     3.096894
      pz      :     1.009118  p :     2.865550
      px      :     0.955395
      py      :     0.901036
      dz2     :     0.002433  d :     0.034486
      dxz     :     0.007144
      dyz     :     0.002153
      dx2y2   :     0.013583
      dxy     :     0.009173

  5 H s       :     0.946098  s :     0.946098
      pz      :     0.011092  p :     0.023520
      px      :     0.005360
      py      :     0.007068

  6 H s       :     0.964629  s :     0.964629
      pz      :     0.006997  p :     0.023104
      px      :     0.011921
      py      :     0.004187

  7 H s       :     0.956196  s :     0.956196
      pz      :     0.005506  p :     0.023508
      px      :     0.013244
      py      :     0.004757

  8 H s       :     0.950977  s :     0.950977
      pz      :     0.008281  p :     0.023457
      px      :     0.009795
      py      :     0.005382

  9 H s       :     0.957806  s :     0.957806
      pz      :     0.007072  p :     0.023518
      px      :     0.007430
      py      :     0.009017

 10 H s       :     0.980141  s :     0.980141
      pz      :     0.005234  p :     0.022538
      px      :     0.010769
      py      :     0.006536

 11 H s       :     0.978546  s :     0.978546
      pz      :     0.006400  p :     0.022517
      px      :     0.007911
      py      :     0.008206

 12 H s       :     0.985200  s :     0.985200
      pz      :     0.005077  p :     0.022781
      px      :     0.003574
      py      :     0.014129



                     *******************************
                     * LOEWDIN POPULATION ANALYSIS *
                     *******************************

----------------------
LOEWDIN ATOMIC CHARGES
----------------------
   0 C :   -0.060738
   1 C :   -0.051229
   2 C :   -0.022450
   3 C :   -0.031612
   4 C :   -0.054177
   5 H :    0.035436
   6 H :    0.029522
   7 H :    0.023805
   8 H :    0.031299
   9 H :    0.021183
  10 H :    0.024177
  11 H :    0.027598
  12 H :    0.027188

-------------------------------
LOEWDIN REDUCED ORBITAL CHARGES
-------------------------------
  0 C s       :     2.835274  s :     2.835274
      pz      :     1.060793  p :     3.152321
      px      :     1.061360
      py      :     1.030168
      dz2     :     0.008464  d :     0.073144
      dxz     :     0.014758
      dyz     :     0.019251
      dx2y2   :     0.021050
      dxy     :     0.009621

  1 C s       :     2.887975  s :     2.887975
      pz      :     0.999095  p :     3.094868
      px      :     1.036436
      py      :     1.059337
      dz2     :     0.004608  d :     0.068386
      dxz     :     0.005482
      dyz     :     0.013323
      dx2y2   :     0.021842
      dxy     :     0.023131

  2 C s       :     2.876879  s :     2.876879
      pz      :     0.957504  p :     3.057776
      px      :     1.067505
      py      :     1.032767
      dz2     :     0.005380  d :     0.087796
      dxz     :     0.010804
      dyz     :     0.010047
      dx2y2   :     0.028049
      dxy     :     0.033517

  3 C s       :     2.871842  s :     2.871842
      pz      :     0.970655  p :     3.068555
      px      :     1.027363
      py      :     1.070537
      dz2     :     0.006267  d :     0.091215
      dxz     :     0.011906
      dyz     :     0.014539
      dx2y2   :     0.024936
      dxy     :     0.033568

  4 C s       :     2.867781  s :     2.867781
      pz      :     0.997568  p :     3.096662
      px      :     1.060939
      py      :     1.038155
      dz2     :     0.006010  d :     0.089734
      dxz     :     0.015530
      dyz     :     0.004493
      dx2y2   :     0.037676
      dxy     :     0.026025

  5 H s       :     0.900511  s :     0.900511
      pz      :     0.031149  p :     0.064054
      px      :     0.012295
      py      :     0.020609

  6 H s       :     0.906943  s :     0.906943
      pz      :     0.017805  p :     0.063535
      px      :     0.033432
      py      :     0.012298

  7 H s       :     0.908901  s :     0.908901
      pz      :     0.016451  p :     0.067294
      px      :     0.038249
      py      :     0.012594

  8 H s       :     0.903078  s :     0.903078
      pz      :     0.022207  p :     0.065623
      px      :     0.027307
      py      :     0.016109

  9 H s       :     0.910507  s :     0.910507
      pz      :     0.021490  p :     0.068310
      px      :     0.021485
      py      :     0.025335

 10 H s       :     0.909216  s :     0.909216
      pz      :     0.016262  p :     0.066607
      px      :     0.029553
      py      :     0.020793

 11 H s       :     0.907368  s :     0.907368
      pz      :     0.018660  p :     0.065034
      px      :     0.023475
      py      :     0.022900

 12 H s       :     0.906765  s :     0.906765
      pz      :     0.015512  p :     0.066047
      px      :     0.010701
      py      :     0.039833



                      *****************************
                      * MAYER POPULATION ANALYSIS *
                      *****************************

  NA   - Mulliken gross atomic population
  ZA   - Total nuclear charge
  QA   - Mulliken gross atomic charge
  VA   - Mayer's total valence
  BVA  - Mayer's bonded valence
  FA   - Mayer's free valence

  ATOM       NA         ZA         QA         VA         BVA        FA
  0 C      5.9404     6.0000     0.0596     3.9265     3.9265     0.0000
  1 C      6.0322     6.0000    -0.0322     3.9480     3.9480     0.0000
  2 C      6.1005     6.0000    -0.1005     4.0910     4.0910     0.0000
  3 C      6.0254     6.0000    -0.0254     4.0291     4.0291     0.0000
  4 C      5.9969     6.0000     0.0031     3.9687     3.9687     0.0000
  5 H      0.9696     1.0000     0.0304     0.9836     0.9836    -0.0000
  6 H      0.9877     1.0000     0.0123     0.9836     0.9836     0.0000
  7 H      0.9797     1.0000     0.0203     0.9744     0.9744     0.0000
  8 H      0.9744     1.0000     0.0256     1.0058     1.0058     0.0000
  9 H      0.9813     1.0000     0.0187     0.9906     0.9906     0.0000
 10 H      1.0027     1.0000    -0.0027     0.9774     0.9774    -0.0000
 11 H      1.0011     1.0000    -0.0011     0.9764     0.9764    -0.0000
 12 H      1.0080     1.0000    -0.0080     0.9759     0.9759     0.0000

  Mayer bond orders larger than 0.100000
B(  0-C ,  2-C ) :   1.0886 B(  0-C ,  5-H ) :   0.9471 B(  0-C ,  6-H ) :   0.9524 
B(  0-C ,  8-H ) :   0.9514 B(  1-C ,  3-C ) :   1.9410 B(  1-C ,  7-H ) :   0.9464 
B(  1-C ,  9-H ) :   0.9556 B(  2-C ,  4-C ) :   1.8998 B(  2-C , 10-H ) :   0.9484 
B(  3-C ,  4-C ) :   1.0857 B(  3-C , 11-H ) :   0.9513 B(  4-C , 12-H ) :   0.9451 


-------
TIMINGS
-------

Total SCF time: 0 days 0 hours 0 min 6 sec 

Total time                  ....       6.452 sec
Sum of individual times     ....       6.042 sec  ( 93.7%)

SCF preparation             ....       0.182 sec  (  2.8%)
Fock matrix formation       ....       5.657 sec  ( 87.7%)
  Startup                   ....       0.004 sec  (  0.1% of F)
  Split-RI-J                ....       0.449 sec  (  7.9% of F)
  Chain of spheres X        ....       4.222 sec  ( 74.6% of F)
  XC integration            ....       1.223 sec  ( 21.6% of F)
    XC Preparation          ....       0.000 sec  (  0.0% of XC)
    Basis function eval.    ....       0.381 sec  ( 31.2% of XC)
    Density eval.           ....       0.198 sec  ( 16.2% of XC)
    XC-Functional eval.     ....       0.084 sec  (  6.9% of XC)
    XC-Potential eval.      ....       0.223 sec  ( 18.2% of XC)
Diagonalization             ....       0.000 sec  (  0.0%)
Density matrix formation    ....       0.026 sec  (  0.4%)
Total Energy calculation    ....       0.016 sec  (  0.2%)
Population analysis         ....       0.014 sec  (  0.2%)
Orbital Transformation      ....       0.014 sec  (  0.2%)
Orbital Orthonormalization  ....       0.000 sec  (  0.0%)
DIIS solution               ....       0.073 sec  (  1.1%)
SOSCF solution              ....       0.060 sec  (  0.9%)
Finished LeanSCF after   6.5 sec

Maximum memory used throughout the entire LEANSCF-calculation: 9.7 MB


-------------------------------------------------------------------------------
                          DFT DISPERSION CORRECTION                            
                                                                               
                              DFTD3 V3.1  Rev 1                                
                          USING Becke-Johnson damping                          
-------------------------------------------------------------------------------
The B3LYP functional is recognized
Active option DFTDOPT                   ...         4   

molecular C6(AA) [au] = 1485.464222 


            DFT-D V3
 parameters
 s6 scaling factor         :     1.0000 
 a1 scaling factor         :     0.3981 
 s8 scaling factor         :     1.9889 
 a2 scaling factor         :     4.4211 
 ad hoc parameters k1-k3   :    16.0000     1.3333    -4.0000 

 Edisp/kcal,au: -10.307201259876  -0.016425568994 
 E6   /kcal   :  -4.952893617 
 E8   /kcal   :  -5.354307643 
 % E8         :  51.947250357 

-------------------------   ----------------
Dispersion correction           -0.016425569
-------------------------   ----------------


-------------------------   --------------------
FINAL SINGLE POINT ENERGY      -195.042399241658
-------------------------   --------------------



           ************************************************************
           *        Program running with 6 parallel MPI-processes     *
           *              working on a common directory               *
           ************************************************************
------------------------------------------------------------------------------
                         ORCA SCF GRADIENT CALCULATION
------------------------------------------------------------------------------

Nuc. rep. gradient        (SHARK) ... done (  0.0 sec)
HCore & Overlap gradient  (SHARK) ... done (  0.0 sec)
Split-RIJ-J gradient      (SHARK) ... done (  0.2 sec)
done (  3.1 sec)
XC gradient                       ... done (  0.6 sec)
Dispersion correction             ... done (  0.0 sec)

-------------------
DISPERSION GRADIENT
-------------------

   1   C   :   -0.000487395   -0.000254766   -0.000042213
   2   C   :    0.000655845   -0.000174374    0.000013129
   3   C   :   -0.000455553    0.000170634    0.000045755
   4   C   :    0.000448034    0.000227578   -0.000048356
   5   C   :    0.000015763    0.000449311    0.000039274
   6   H   :   -0.000221147   -0.000217936    0.000071884
   7   H   :   -0.000173545   -0.000125797   -0.000056950
   8   H   :    0.000184413   -0.000096108   -0.000005808
   9   H   :   -0.000188496   -0.000237882   -0.000112790
  10   H   :    0.000257132   -0.000214124    0.000079990
  11   H   :   -0.000183427    0.000126807    0.000049242
  12   H   :    0.000174453    0.000114127   -0.000068905
  13   H   :   -0.000026076    0.000232530    0.000035748

Difference to translation invariance:
           :    0.0000000000    0.0000000000   -0.0000000000

Difference to rotation invariance:
           :    0.0000000000   -0.0000000000    0.0000000000

Norm of the Dispersion gradient    ...    0.0014268324
RMS gradient                       ...    0.0002284760
MAX gradient                       ...    0.0006558447

------------------
CARTESIAN GRADIENT
------------------

   1   C   :    0.000095089   -0.000075327    0.000102145
   2   C   :    0.000038853   -0.000051596   -0.000043313
   3   C   :   -0.000132642   -0.000030928    0.000072077
   4   C   :   -0.000038554    0.000011167   -0.000064208
   5   C   :    0.000057207   -0.000030522    0.000056698
   6   H   :    0.000003649    0.000051031   -0.000083855
   7   H   :   -0.000011379    0.000020672   -0.000045536
   8   H   :   -0.000043598    0.000044289    0.000061373
   9   H   :   -0.000003404    0.000048852    0.000028385
  10   H   :   -0.000056033   -0.000022349   -0.000000911
  11   H   :    0.000057730   -0.000019333   -0.000009933
  12   H   :    0.000017529    0.000012293   -0.000026047
  13   H   :    0.000015556    0.000041752   -0.000046875

Difference to translation invariance:
           :    0.0000000000   -0.0000000000    0.0000000000

Difference to rotation invariance:
           :   -0.0000577743    0.0000570964   -0.0000749487

Norm of the Cartesian gradient     ...    0.0003224471
RMS gradient                       ...    0.0000516329
MAX gradient                       ...    0.0001326424

-------
TIMINGS
-------

Total SCF gradient time     ....        3.983 sec

Densities                   ....       0.001 sec  (  0.0%)
One electron gradient       ....       0.030 sec  (  0.7%)
RI-J Coulomb gradient       ....       0.191 sec  (  4.8%)
COSX gradient               ....       3.103 sec  ( 77.9%)
XC gradient                 ....       0.612 sec  ( 15.4%)

Maximum memory used throughout the entire SCFGRAD-calculation: 27.5 MB


           ************************************************************
           *        Program running with 6 parallel MPI-processes     *
           *              working on a common directory               *
           ************************************************************

------------------------------------------------------------------------------
                              ORCA PROPERTY CALCULATIONS
------------------------------------------------------------------------------

GBWName                                 ... orca.gbw
Number of atoms                         ...     13
Number of basis functions               ...    110
Max core memory                         ...   4096 MB

Electric properties:
Dipole moment                           ... YES
Quadrupole moment                       ...  NO
Static polarizability (Dipole/Dipole)   ...  NO
Static polarizability (Dipole/Quad.)    ...  NO
Static polarizability (Quad./Quad.)     ...  NO
Static polarizability (Velocity)        ...  NO
Static hyperpolarizability              ...  NO

Atomic electric properties:
Dipole moment                           ...  NO
Quadrupole moment                       ...  NO
Static polarizability                   ...  NO

Choice of electric origin               ... Center of mass
Position of electric origin             ...    -0.034125     0.077523     0.040456

General magnetic properties:
Magnetizability                         ...  NO

EPR properties:
g-Tensor (aka g-matrix)                 ...  NO
Zero-Field splitting spin-orbit         ...  NO
Zero-field splitting spin-spin          ...  NO
Hyperfine couplings                     ...  NO (   0 nuclei)
Quadrupole couplings                    ...  NO (   0 nuclei)
Contact density                         ...  NO (   0 nuclei)

NMR properties:
Chemical shifts                         ...  NO (   0 nuclei)
Spin-rotation constants                 ...  NO (   0 nuclei)
Spin-spin couplings                     ...  NO (   0 nuclei,    0 pairs)

Choice of magnetic origin               ... GIAO
Position of magnetic origin             ...     0.000000     0.000000     0.000000

Properties with geometric perturbations:
SCF Hessian                             ...  NO
IR spectrum                             ...  NO
VCD spectrum                            ...  NO
X-ray spectroscopy properties:
SCF XES/XAS/RIXS spectra                ...  NO

SCF SOC stabilization energy            ...  NO
Diagonal Born-Oppenheimer correction    ...  NO

-------------
DIPOLE MOMENT
-------------

Method             : SCF
Type of density    : Electron Density
Multiplicity       :   1
Irrep              :   0
Energy             :  -195.0259736726644633 Eh
Basis              : AO
                                X                 Y                 Z
Electronic contribution:      1.056745281       2.201605122       0.181106937
Nuclear contribution   :     -1.163916786      -2.265268557      -0.184237575
                        -----------------------------------------
Total Dipole Moment    :     -0.107171505      -0.063663435      -0.003130638
                        -----------------------------------------
Magnitude (a.u.)       :      0.124693886
Magnitude (Debye)      :      0.316946671



--------------------
Rotational spectrum 
--------------------
 
Rotational constants in cm-1:             0.292566             0.127916             0.092694 
Rotational constants in MHz :          8770.897810          3834.815693          2778.898164 

Dipole components along the rotational axes: 
x,y,z [a.u.] :     0.112653    -0.053378    -0.002923 
x,y,z [Debye]:     0.286342    -0.135677    -0.007429 

 

Dipole moment calculation done in   0.0 sec 

Maximum memory used throughout the entire PROP-calculation: 5.6 MB

--------------------------------
SUGGESTED CITATIONS FOR THIS RUN
--------------------------------

Below you find a list of papers that are relevant to this ORCA run
We neither can nor want to force you to cite these papers, but we appreciate if you do
You receive ORCA, which is the product of decades of hard work by many enthusiastic individuals, for free
The only thing we kindly ask in return is that you cite our papers,
We deeply appreciate it, if you show your appreciation for ORCA by not just citing the generic ORCA reference.

Please note that relegating all ORCA citations to the supporting information does *not* help us.
SI sections are not indexed - citations you put there will not count into any citation statistics
But we need these citations in order to attract the funding resources that allow us to do what we are doing

Therefore, if you are a happy ORCA user, please consider citing a few of the papers listed below in the main body of your paper

In addition to the list printed below, the program has created the file orca.bibtex that contains the list in bibtex format
You can import this file easily into all common literature databanks and citation aid programs


List of essential papers. We consider these as the minimum necessary citations

  1. Neese, F.
     Software update: the ORCA program system, version 6.0
     WIRES Comput. Molec. Sci. 2025 15(1), e70019
     doi.org/10.1002/wcms.7019

List of papers to cite with high priority. The work reported in these papers was absolutely
necessary for this run to complete.
Our perspective: the developers of density functionals and basis sets usually get cited in chemistry papers
Good! But without the algorithms to do something with them, the functionals or basis sets would not do anything.
Hence, in our opinion, the algorithm design and method developments papers are equally worthy of getting cited

  1. Neese, F.
     An improvement of the resolution of the identity approximation for the formation of the Coulomb matrix
     J. Comp. Chem. 2003 24(14), 1740-1747
     doi.org/10.1002/jcc.10318
  2. Neese, F.; Wennmohs, F.; Hansen, A.; Becker, U.
     Efficient, approximate and parallel Hartree-Fock and hybrid DFT calculations. A 'chain-of-spheres' algorithm for the Hartree-Fock exchange
     Chem. Phys. 2009 356(1-3), 98-109
     doi.org/10.1016/j.chemphys.2008.10.036
  3. Grimme, S.; Antony, J.; Ehrlich, S.; Krieg, H.
     A consistent and accurate ab initio parametrization of density functional dispersion correction (DFT-D) for the 94 elements H-Pu
     J. Chem. Phys. 2010 132 , 154104
     doi.org/10.1063/1.3382344
  4. Grimme, S.; Ehrlich, S.; Goerigk, L.
     Effect of the damping function in dispersion corrected density functional theory
     J. Comput. Chem. 2011 32(7), 1456-1465
     doi.org/10.1002/jcc.21759
  5. Helmich-Paris, B.; de Souza, B.; Neese, F.; Izsák, R.
     An improved chain of spheres for exchange algorithm
     J. Chem. Phys. 2021 155(10), 104109
     doi.org/10.1063/5.0058766
  6. Neese, F.
     The SHARK Integral Generation and Digestion System
     J. Comp. Chem. 2022 44(3), 381
     doi.org/10.1002/jcc.26942

List of suggested additional citations. These are papers that are important in the 'surrounding' of 
of this run, or papers that preceded the highly important papers. If you like your results we are grateful for a citation.

  1. Izsak, R.; Neese, F.
     An overlap fitted chain of spheres exchange method
     J. Chem. Phys. 2011 135 , 144105
     doi.org/10.1063/1.3646921
  2. Izsak, R.; Hansen, A.; Neese, F.
     The resolution of identity and chain of spheres approximations for the LPNO-CCSD singles Fock term
     Molec. Phys. 2012 110 , 2413-2417
     doi.org/10.1080/00268976.2012.687466
  3. Neese, F.
     The ORCA program system
     WIRES Comput. Molec. Sci. 2012 2(1), 73-78
     doi.org/10.1002/wcms.81
  4. Izsak, R.; Neese, F.; Klopper, W.
     Robust fitting techniques in the chain of spheres approximation to the Fock exchange: The role of the complementary space
     J. Chem. Phys. 2013 139 , 
     doi.org/10.1063/1.4819264
  5. Neese, F.
     Software update: the ORCA program system, version 4.0
     WIRES Comput. Molec. Sci. 2018 8(1), 1-6
     doi.org/10.1002/wcms.1327
  6. Neese, F.; Wennmohs, F.; Becker, U.; Riplinger, C.
     The ORCA quantum chemistry program package
     J. Chem. Phys. 2020 152(22), 224108
     doi.org/10.1063/5.0004608
  7. Neese, F.
     Software update: The ORCA program system—Version 5.0
     WIRES Comput. Molec. Sci. 2022 12(1), e1606
     doi.org/10.1002/wcms.1606

List of optional additional citations

  1. Neese, F.
     Approximate second-order SCF convergence for spin unrestricted wavefunctions
     Chem. Phys. Lett. 2000 325(1-3), 93-98
     doi.org/10.1016/s0009-2614(00)00662-x

Timings for individual modules:

Sum of individual times          ...       13.578 sec (=   0.226 min)
Startup calculation              ...        1.241 sec (=   0.021 min)   9.1 %
SCF iterations                   ...        7.443 sec (=   0.124 min)  54.8 %
Property calculations            ...        0.469 sec (=   0.008 min)   3.5 %
SCF Gradient evaluation          ...        4.425 sec (=   0.074 min)  32.6 %
                             ****ORCA TERMINATED NORMALLY****
TOTAL RUN TIME: 0 days 0 hours 0 minutes 14 seconds 188 msec
