
                                 *****************
                                 * O   R   C   A *
                                 *****************

                                            #,                                       
                                            ###                                      
                                            ####                                     
                                            #####                                    
                                            ######                                   
                                           ########,                                 
                                     ,,################,,,,,                         
                               ,,#################################,,                 
                          ,,##########################################,,             
                       ,#########################################, ''#####,          
                    ,#############################################,,   '####,        
                  ,##################################################,,,,####,       
                ,###########''''           ''''###############################       
              ,#####''   ,,,,##########,,,,          '''####'''          '####       
            ,##' ,,,,###########################,,,                        '##       
           ' ,,###''''                  '''############,,,                           
         ,,##''                                '''############,,,,        ,,,,,,###''
      ,#''                                            '''#######################'''  
     '                                                          ''''####''''         
             ,#######,   #######,   ,#######,      ##                                
            ,#'     '#,  ##    ##  ,#'     '#,    #''#        ,####,    ,#,          
            ##       ##  ##   ,#'  ##            #'  '#       #'       ,# #          
            ##       ##  #######   ##           ,######,      #####,      #          
            '#,     ,#'  ##    ##  '#,     ,#' ,#      #,     #,   #      #          
             '#######'   ##     ##  '#######'  #'      '#     '####' #    #          



                #########################################################
                #                        -***-                          #
                #          Department of theory and spectroscopy        #
                #                                                       #
                #                      Frank Neese                      #
                #                                                       #
                #     Directorship, Architecture, Infrastructure        #
                #                    SHARK, DRIVERS                     #
                #        Core code/Algorithms in most modules           #
                #                                                       #
                #        Max Planck Institute fuer Kohlenforschung      #
                #                Kaiser Wilhelm Platz 1                 #
                #                 D-45470 Muelheim/Ruhr                 #
                #                      Germany                          #
                #                                                       #
                #                  All rights reserved                  #
                #                        -***-                          #
                #########################################################


                         Program Version 6.1.0  -  RELEASE   -
                                (GIT: $679e74b$)
                          ($2025-06-10 18:02:51 +0200$)


 With contributions from (in alphabetic order):
[Max-Planck-Institut fuer Kohlenforschung]                               
  Daniel Aravena         : Magnetic Suceptibility                        
  Michael Atanasov       : Ab Initio Ligand Field Theory (pilot matlab implementation)
  Alexander A. Auer      : GIAO ZORA, VPT2 properties, NMR spectrum      
  Ute Becker             : All parallelization in ORCA, NUMFREQ, NUMCALC 
  Giovanni Bistoni       : ED, misc. LED, open-shell LED, HFLD           
  Dmytro Bykov           : pre 5.0 version of the SCF Hessian            
  Marcos Casanova-Páez   : Triplet and SCS-CIS(D). UHF-(DLPNO)-IP/EA/STEOM-CCSD. UHF-CVS-IP/STEOM-CCSD   
  Vijay G. Chilkuri      : MRCI spin determinant printing, contributions to CSF-ICE 
  Pauline Colinet        : FMM embedding                                 
  Dipayan Datta          : RHF DLPNO-CCSD density                        
  Achintya Kumar Dutta   : EOM-CC, STEOM-CC                              
  Nicolas Foglia         : Exact transition moments, OPA infrastructure, MCD improvements    
  Dmitry Ganyushin       : Spin-Orbit,Spin-Spin,Magnetic field MRCI      
  Miquel Garcia-Rates    : C-PCM and meta-GGA Hessian, CCSD/C-PCM, Gaussian charge scheme 
  Tiago L. C. Gouveia    : GS-ROHF, GS-ROCIS                             
  Yang Guo               : DLPNO-NEVPT2, F12-NEVPT2, CIM, IAO-localization        
  Andreas Hansen         : Spin unrestricted coupled pair/coupled cluster methods 
  Ingolf Harden          : AUTO-CI MPn and infrastructure                
  Benjamin Helmich-Paris : MC-RPA, TRAH-(SCF,CASSCF), AVAS, COSX integrals, SCF dyn. polar., MC-PDFT, srDFT 
  Lee Huntington         : MR-EOM, pCC                                   
  Robert Izsak           : Overlap fitted RIJCOSX, COSX-SCS-MP3, EOM     
  Riya Kayal             : Wick's Theorem for AUTO-CI, AUTO-CI UHF-CCSDT 
  Emily Kempfer          : AUTO-CI RHF CISDT and CCSDT, approximate NEVPT4
  Christian Kollmar      : KDIIS, OOCD, Brueckner-CCSD(T), CCSD density, CASPT2, CASPT2-K, improved NEVPT2 
  Axel Koslowski         : Symmetry handling                             
  Simone Kossmann        : meta-GGA functionals, TD-DFT gradient, OOMP2, (MP2 Hessian; deprecated post 5.0) 
  Lucas Lang             : DCDCAS, Hyperfine gauge corrections, ICE-SOC+SSC
  Marvin Lechner         : AUTO-CI (C++ implementation), FIC-MRCC        
  Spencer Leger          : CASSCF response                               
  Dagmar Lenk            : GEPOL surface, SMD, ORCA-2-JSON               
  Dimitrios Liakos       : Extrapolation schemes; Compound Job, Property file
  Dimitrios Manganas     : Further ROCIS development; embedding schemes. LFT, Crystal Embedding 
  Dimitrios Pantazis     : SARC Basis sets                               
  Anastasios Papadopoulos: AUTO-CI, single reference methods and gradients 
  Taras Petrenko         : pre 6.0 DFT Hessian and TD-DFT gradient,  ECA, NRVS 
  Petra Pikulova         : Analytic Raman intensities                    
  Peter Pinski           : DLPNO-MP2, DLPNO-MP2 Gradient                 
  Shashank Vittal Rao    : ES-AILFT, MagRelax                            
  Christoph Reimann      : Effective Core Potentials                     
  Marius Retegan         : Local ZFS, SOC                                
  Christoph Riplinger    : Optimizer, TS searches, QM/MM, DLPNO-CCSD(T), (RO)-DLPNO pert. Triples 
  Michael Roemelt        : Original ROCIS implementation, recursive CI coupling coefficients
  Masaaki Saitow         : Open-shell DLPNO-CCSD energy and density      
  Barbara Sandhoefer     : DKH picture change effects                    
  Yorick L. A. Schmerwitz: GMF and freeze-and-release deltaSCF, NEB S-IDPP initial path                    
  Kantharuban Sivalingam : CASSCF convergence/infrastructure, NEVPT2, NEVPT3, NEVPT4(SD), FIC-MRCI and CEPA variants
  Bernardo de Souza      : ESD, SOC TD-DFT                               
  Georgi L. Stoychev     : AutoAux, RI-MP2 NMR, DLPNO-MP2 response, X2C  
  Van Anh Tran           : RI-MP2 g-tensors                              
  Willem Van den Heuvel  : Paramagnetic NMR                              
  Zikuan Wang            : NOTCH, Electric field optimization            
  Frank Wennmohs         : Technical directorship and infrastructure     
  Hang Xu                : AUTO-CI-Response properties                   
                                                                         
[FACCTs GmbH]                                                            
  Markus Bursch, Nicolas Foglia, Miquel Garcia-Rates, Ingolf Harden, Hagen Neugebauer, Anastasios Papadopoulos, 
  Christoph Riplinger, Bernardo de Souza, Georgi L. Stoychev                                                    
                                                                 
  APM, various basis sets, CI-OPT, improved COSX, DLPNO-Multilevel,           
  DOCKER, DRACO, updates on ESD, Fragmentator, GOAT, IRC, LR-CPCM, L-BFGS, MBIS, meta-GGA TD-DFT gradient, ML-optimized integration grids, 
  MM, NACMEs, nearIR, NEB, NEB-TS, NL-DFT gradient (VV10), 2- and 3-layer-ONIOM, interface openCOSMO-RS, QMMM,   
  Crystal-QMMM, RESP, rigid body optimization, SF, symmetry and pop. for TD-DFT, various functionals, SOLVATOR                                   
                                                                         
[Other institutions]                                                     
  V. Asgeirsson          : NEB                                           
  Christoph Bannwarth    : sTDA-DFT, sTD-DFT, PBEh-3c, B97-3c, D3        
  Giovanni Bistoni       : ETS/NOCV, ADLD/ADEX, COVALED                  
  Martin Brehm           : Molecular dynamics                            
  Ronald Cardenas        : ETS/NOCV                                      
  Martina Colucci        : COVALED                                       
  Sebastian Ehlert       : rSCAN, r2SCAN, r2SCAN-3c, D4, dhf basis sets  
  Marvin Friede          : D4 for Fr, Ra, Ac-Lr                          
  Lars Goerigk           : TD-DFT with DH, B97 family of functionals     
  Stefan Grimme          : VdW corrections, initial TS optimization, DFT functionals, gCP, sTDA/sTD-DF 
  Waldemar Hujo          : DFT-NL                                        
  H. Jonsson             : NEB                                           
  Holger Kruse           : gCP                                           
  Marcel Mueller         : wB97X-3c, vDZP basis set                      
  Hagen Neugebauer       : wr2SCAN, Native XTB                           
  Gianluca Regni         : ADLD/ADEX                                     
  Tobias Risthaus        : pre 6.0 range-separated hybrid DFT and stability analysis
  Lukas Wittmann         : regularized MP2, r2SCAN double-hybrids, wr2SCAN        
                                                                         
We gratefully acknowledge several colleagues who have allowed us to      
interface, adapt or use parts of their codes:                            
  Ed Valeev, F. Pavosevic, A. Kumar             : LibInt (2-el integral package), F12 methods 
  Garnet Chan, S. Sharma, J. Yang, R. Olivares  : DMRG                   
  Ulf Ekstrom                                   : XCFun DFT Library      
  Mihaly Kallay                                 : mrcc  (arbitrary order and MRCC methods)
  Frank Weinhold                                : gennbo (NPA and NBO analysis)           
  Simon Mueller                                 : openCOSMO-RS                            
  Christopher J. Cramer and Donald G. Truhlar   : smd solvation model                     
  S Lehtola, MJT Oliveira, MAL Marques          : LibXC Library                           
  Liviu Ungur et al                             : ANISO software                          


 Your calculation uses the libint2 library for the computation of 2-el integrals
 For citations please refer to: http://libint.valeyev.net

 Your ORCA version has been built with support for libXC version: 7.0.0
 For citations please refer to: https://libxc.gitlab.io

 This ORCA versions uses:
   CBLAS   interface :  Fast vector & matrix operations
   LAPACKE interface :  Fast linear algebra routines
   SCALAPACK package :  Parallel linear algebra routines
   Shared memory     :  Shared parallel matrices
   BLAS/LAPACK       :  OpenBLAS 0.3.29  USE64BITINT DYNAMIC_ARCH NO_AFFINITY Zen SINGLE_THREADED
        Core in use  :  Zen
   Copyright (c) 2011-2014, The OpenBLAS Project


  ***********************************
  * Starting time: Wed Sep 10 13:39:38 2025
  * Host name:     wyk-Server
  * Process ID:    2315568
  * Working dir.:  /home/wyk/Documents/code/openQDC/MGMR/singlepointcalc/120/react
  ***********************************

Your calculation utilizes the atom-pairwise dispersion correction
with the Becke-Johnson damping scheme (D3BJ)


Warning: RI is on but no J-basis has been assigned. Assigning Def2/J (nothing to worry about!)
================================================================================

----- Orbital basis set information -----
Your calculation utilizes the basis: def2-SVP
   F. Weigend and R. Ahlrichs, Phys. Chem. Chem. Phys. 7, 3297 (2005).

----- AuxJ basis set information -----
Your calculation utilizes the auxiliary basis: def2/J
   H-Rn: F. Weigend, Phys. Chem. Chem. Phys. 8, 1057 (2006).
   Fr-Lr: K. Eichkorn, F. Weigend, O. Treutler, R. Ahlrichs; Theor. Chem. Acc. 97, 119 (1997).

================================================================================
                                        WARNINGS
                       Please study these warnings very carefully!
================================================================================


================================================================================
                                       INPUT FILE
================================================================================
NAME = orca.inp
|  1> ! B3LYP def2-SVP d3 EnGrad 
|  2> %pal nprocs 6 end 
|  3> *xyz 0 1 
|  4> N   1.31231466833257 -0.9309540400763 0.27299080735739
|  5> B   1.63042449940847 0.66998381750214 0.11178362812819
|  6> B   -2.20911595301251 -0.42050562835692 -0.14827576511935
|  7> N   -1.69451624956238 0.84107746710194 -0.37970804982419
|  8> H   1.56691753687225 -1.26588542838352 1.20539900887265
|  9> H   1.83817839629714 -1.48570900113018 -0.40613107139579
| 10> H   0.31371721237444 -1.13541650021434 0.14071481153996
| 11> H   2.8178129015219 0.81329845846072 0.35851792469215
| 12> H   1.34156913468162 0.95126669357784 -1.04338284344923
| 13> H   0.90920898614709 1.22472415462454 0.93550264172419
| 14> H   -1.51043671494307 -1.26082955776606 0.38755587317758
| 15> H   -3.33649909654142 -0.70308401588847 -0.47363884225952
| 16> H   -2.23238434441351 1.57358730387539 -0.83055804717748
| 17> H   -0.74719097716259 1.12844627667321 -0.13077007626655
| 18> *
| 19> 
| 20>                          ****END OF INPUT****
================================================================================

                     *******************************
                     * Energy+Gradient Calculation *
                     *******************************

---------------------------------
CARTESIAN COORDINATES (ANGSTROEM)
---------------------------------
  N      1.312315   -0.930954    0.272991
  B      1.630424    0.669984    0.111784
  B     -2.209116   -0.420506   -0.148276
  N     -1.694516    0.841077   -0.379708
  H      1.566918   -1.265885    1.205399
  H      1.838178   -1.485709   -0.406131
  H      0.313717   -1.135417    0.140715
  H      2.817813    0.813298    0.358518
  H      1.341569    0.951267   -1.043383
  H      0.909209    1.224724    0.935503
  H     -1.510437   -1.260830    0.387556
  H     -3.336499   -0.703084   -0.473639
  H     -2.232384    1.573587   -0.830558
  H     -0.747191    1.128446   -0.130770

----------------------------
CARTESIAN COORDINATES (A.U.)
----------------------------
  NO LB      ZA    FRAG     MASS         X           Y           Z
   0 N     7.0000    0    14.007    2.479915   -1.759248    0.515878
   1 B     5.0000    0    10.810    3.081056    1.266086    0.211240
   2 B     5.0000    0    10.810   -4.174624   -0.794640   -0.280201
   3 N     7.0000    0    14.007   -3.202172    1.589406   -0.717544
   4 H     1.0000    0     1.008    2.961045   -2.392177    2.277874
   5 H     1.0000    0     1.008    3.473654   -2.807583   -0.767476
   6 H     1.0000    0     1.008    0.592840   -2.145626    0.265912
   7 H     1.0000    0     1.008    5.324895    1.536911    0.677501
   8 H     1.0000    0     1.008    2.535198    1.797634   -1.971708
   9 H     1.0000    0     1.008    1.718156    2.314393    1.767844
  10 H     1.0000    0     1.008   -2.854312   -2.382623    0.732374
  11 H     1.0000    0     1.008   -6.305070   -1.328636   -0.895048
  12 H     1.0000    0     1.008   -4.218595    2.973649   -1.569527
  13 H     1.0000    0     1.008   -1.411986    2.132454   -0.247120

--------------------------------
INTERNAL COORDINATES (ANGSTROEM)
--------------------------------
 N      0   0   0     0.000000000000     0.00000000     0.00000000
 B      1   0   0     1.640177930314     0.00000000     0.00000000
 B      1   2   0     3.583084806010    92.29262282     0.00000000
 N      3   1   2     1.382015073703    77.51330896     5.51699704
 H      1   2   3     1.022930452081   111.15584046   243.70113769
 H      1   2   3     1.022493155676   111.37953745   123.92106702
 H      1   2   3     1.027861233689   111.71187338     3.26486540
 H      2   1   3     1.221191269576   106.45549069   173.08070746
 H      2   1   3     1.223506050317   105.74797971   293.70569464
 H      2   1   3     1.227355560365   105.14342301    53.51978478
 H      3   1   2     1.217132913304    44.41613777   204.87963537
 H      3   1   2     1.206940110105   156.39837121   150.02306329
 H      4   3   1     1.014464621632   122.42151480   163.96990775
 H      4   3   1     1.020772315025   124.17431456   344.71669279

---------------------------
INTERNAL COORDINATES (A.U.)
---------------------------
 N      0   0   0     0.000000000000     0.00000000     0.00000000
 B      1   0   0     3.099487099196     0.00000000     0.00000000
 B      1   2   0     6.771048997973    92.29262282     0.00000000
 N      3   1   2     2.611630002250    77.51330896     5.51699704
 H      1   2   3     1.933058408482   111.15584046   243.70113769
 H      1   2   3     1.932232038036   111.37953745   123.92106702
 H      1   2   3     1.942376235347   111.71187338     3.26486540
 H      2   1   3     2.307717056633   106.45549069   173.08070746
 H      2   1   3     2.312091358294   105.74797971   293.70569464
 H      2   1   3     2.319365878035   105.14342301    53.51978478
 H      3   1   2     2.300047874726    44.41613777   204.87963537
 H      3   1   2     2.280786268142   156.39837121   150.02306329
 H      4   3   1     1.917060307436   122.42151480   163.96990775
 H      4   3   1     1.928980120485   124.17431456   344.71669279

---------------------
BASIS SET INFORMATION
---------------------
There are 3 groups of distinct atoms

 Group   1 Type N   : 7s4p1d contracted to 3s2p1d pattern {511/31/1}
 Group   2 Type B   : 7s4p1d contracted to 3s2p1d pattern {511/31/1}
 Group   3 Type H   : 4s1p contracted to 2s1p pattern {31/1}

Atom   0N    basis set group =>   1
Atom   1B    basis set group =>   2
Atom   2B    basis set group =>   2
Atom   3N    basis set group =>   1
Atom   4H    basis set group =>   3
Atom   5H    basis set group =>   3
Atom   6H    basis set group =>   3
Atom   7H    basis set group =>   3
Atom   8H    basis set group =>   3
Atom   9H    basis set group =>   3
Atom  10H    basis set group =>   3
Atom  11H    basis set group =>   3
Atom  12H    basis set group =>   3
Atom  13H    basis set group =>   3
---------------------------------
AUXILIARY/J BASIS SET INFORMATION
---------------------------------
There are 3 groups of distinct atoms

 Group   1 Type N   : 12s5p4d2f1g contracted to 6s4p3d1f1g pattern {711111/2111/211/2/1}
 Group   2 Type B   : 12s5p4d2f1g contracted to 6s4p3d1f1g pattern {711111/2111/211/2/1}
 Group   3 Type H   : 5s2p1d contracted to 3s1p1d pattern {311/2/1}

Atom   0N    basis set group =>   1
Atom   1B    basis set group =>   2
Atom   2B    basis set group =>   2
Atom   3N    basis set group =>   1
Atom   4H    basis set group =>   3
Atom   5H    basis set group =>   3
Atom   6H    basis set group =>   3
Atom   7H    basis set group =>   3
Atom   8H    basis set group =>   3
Atom   9H    basis set group =>   3
Atom  10H    basis set group =>   3
Atom  11H    basis set group =>   3
Atom  12H    basis set group =>   3
Atom  13H    basis set group =>   3


           ************************************************************
           *        Program running with 6 parallel MPI-processes     *
           *              working on a common directory               *
           ************************************************************
------------------------------------------------------------------------------
                             ORCA STARTUP CALCULATIONS
                           -- RI-GTO INTEGRALS CHOSEN --
------------------------------------------------------------------------------
------------------------------------------------------------------------------
                   ___                                                        
                  /   \      - P O W E R E D   B Y -                         
                 /     \                                                     
                 |  |  |   _    _      __       _____    __    __             
                 |  |  |  | |  | |    /  \     |  _  \  |  |  /  |          
                  \  \/   | |  | |   /    \    | | | |  |  | /  /          
                 / \  \   | |__| |  /  /\  \   | |_| |  |  |/  /          
                |  |  |   |  __  | /  /__\  \  |    /   |      \           
                |  |  |   | |  | | |   __   |  |    \   |  |\   \          
                \     /   | |  | | |  |  |  |  | |\  \  |  | \   \       
                 \___/    |_|  |_| |__|  |__|  |_| \__\ |__|  \__/        
                                                                              
                      - O R C A' S   B I G   F R I E N D -                    
                                      &                                       
                       - I N T E G R A L  F E E D E R -                       
                                                                              
 v1 FN, 2020, v2 2021, v3 2022-2024                                           
------------------------------------------------------------------------------


----------------------
SHARK INTEGRAL PACKAGE
----------------------

Number of atoms                             ...     14
Number of basis functions                   ...    106
Number of shells                            ...     54
Maximum angular momentum                    ...      2
Integral batch strategy                     ... SHARK/LIBINT Hybrid
RI-J (if used) integral strategy            ... SPLIT-RIJ (Revised 2003 algorithm where possible)
Printlevel                                  ...      1
Contraction scheme used                     ... SEGMENTED contraction
Prescreening option                         ... SCHWARTZ
   Thresh                                   ... 2.500e-11
   Tcut                                     ... 2.500e-12
   Tpresel                                  ... 2.500e-12 
Coulomb Range Separation                    ... NOT USED
Exchange Range Separation                   ... NOT USED
Multipole approximations                    ... NOT USED
Finite Nucleus Model                        ... NOT USED
CABS basis                                  ... NOT available
Auxiliary Coulomb fitting basis             ... AVAILABLE
   # of basis functions in Aux-J            ...    306
   # of shells in Aux-J                     ...    110
   Maximum angular momentum in Aux-J        ...      4
Auxiliary J/K fitting basis                 ... NOT available
Auxiliary Correlation fitting basis         ... NOT available
Auxiliary 'external' fitting basis          ... NOT available

Checking pre-screening integrals            ... done (  0.0 sec) Dimension = 54
   => SHARK Basis and OBASIS are compatible. Storing Pre-screening
Shell pair information
Shell pair cut-off parameter TPreSel        ...   2.5e-12
Total number of shell pairs                 ...      1485
Shell pairs after pre-screening             ...      1441
Total number of primitive shell pairs       ...      4933
Primitive shell pairs kept                  ...      3792
          la=0 lb=0:    516 shell pairs
          la=1 lb=0:    559 shell pairs
          la=1 lb=1:    161 shell pairs
          la=2 lb=0:    125 shell pairs
          la=2 lb=1:     70 shell pairs
          la=2 lb=2:     10 shell pairs

Checking whether 4 symmetric matrices of dimension 106 fit in memory
:Max Core in MB      =   4096.00
 MB in use           =      5.09
 MB left             =   4090.91
 MB needed           =      0.17
 Data fit in memory  = YES
Calculating RI/J V-Matrix + Cholesky decomp.... done (  0.0 sec)
Calculating Nuclear repulsion               ... done (  0.0 sec) ENN=    115.082445733455 Eh

Diagonalization of the overlap matrix:
Smallest eigenvalue                        ... 4.805e-03
Time for diagonalization                   ...    0.002 sec
Threshold for overlap eigenvalues          ... 1.000e-07
Number of eigenvalues below threshold      ... 0
Time for construction of square roots      ...    0.001 sec
Total time needed                          ...    0.004 sec

-------------------
DFT GRID GENERATION
-------------------

General Integration Accuracy     IntAcc      ... 4.388
Radial Grid Type                 RadialGrid  ... OptM3 with GC (2021)
Angular Grid (max. ang.)         AngularGrid ... 4 (Lebedev-302)
Angular grid pruning method      GridPruning ... 4 (adaptive)
Weight generation scheme         WeightScheme... mBecke (2022)
Basis function cutoff            BFCut       ... 1.0000e-11
Integration weight cutoff        WCut        ... 1.0000e-14
Partially contracted basis set               ... off
Rotationally invariant grid construction     ... off
Angular grids for H and He will be reduced by one unit

Total number of grid points                  ...    56532
Total number of batches                      ...      891
Average number of points per batch           ...       63
Average number of grid points per atom       ...     4038

--------------------
COSX GRID GENERATION
--------------------

GRIDX 1
-------
General Integration Accuracy     IntAcc      ... 3.816
Radial Grid Type                 RadialGrid  ... OptM3 with GC (2021)
Angular Grid (max. ang.)         AngularGrid ... 1 (Lebedev-50)
Angular grid pruning method      GridPruning ... 4 (adaptive)
Weight generation scheme         WeightScheme... mBecke (2022)
Basis function cutoff            BFCut       ... 1.0000e-11
Integration weight cutoff        WCut        ... 1.0000e-14
Partially contracted basis set               ... on
Rotationally invariant grid construction     ... off
Angular grids for H and He will be reduced by one unit

Total number of grid points                  ...     7309
Total number of batches                      ...       66
Average number of points per batch           ...      110
Average number of grid points per atom       ...      522
UseSFitting                                  ... on

GRIDX 2
-------
General Integration Accuracy     IntAcc      ... 4.020
Radial Grid Type                 RadialGrid  ... OptM3 with GC (2021)
Angular Grid (max. ang.)         AngularGrid ... 2 (Lebedev-110)
Angular grid pruning method      GridPruning ... 4 (adaptive)
Weight generation scheme         WeightScheme... mBecke (2022)
Basis function cutoff            BFCut       ... 1.0000e-11
Integration weight cutoff        WCut        ... 1.0000e-14
Partially contracted basis set               ... on
Rotationally invariant grid construction     ... off
Angular grids for H and He will be reduced by one unit

Total number of grid points                  ...    14964
Total number of batches                      ...      124
Average number of points per batch           ...      120
Average number of grid points per atom       ...     1069
UseSFitting                                  ... on

GRIDX 3
-------
General Integration Accuracy     IntAcc      ... 4.338
Radial Grid Type                 RadialGrid  ... OptM3 with GC (2021)
Angular Grid (max. ang.)         AngularGrid ... 3 (Lebedev-194)
Angular grid pruning method      GridPruning ... 4 (adaptive)
Weight generation scheme         WeightScheme... mBecke (2022)
Basis function cutoff            BFCut       ... 1.0000e-11
Integration weight cutoff        WCut        ... 1.0000e-14
Partially contracted basis set               ... on
Rotationally invariant grid construction     ... off
Angular grids for H and He will be reduced by one unit

Total number of grid points                  ...    32689
Total number of batches                      ...      263
Average number of points per batch           ...      124
Average number of grid points per atom       ...     2335
UseSFitting                                  ... on
Grids setup in   0.7 sec
Initializing property integral containers    ... done (  0.0 sec)

SHARK setup successfully completed in   0.8 seconds

Maximum memory used throughout the entire STARTUP-calculation: 15.7 MB


           ************************************************************
           *        Program running with 6 parallel MPI-processes     *
           *              working on a common directory               *
           ************************************************************
-------------------------------------------------------------------------------
                                 ORCA GUESS
                   Start orbitals & Density for SCF / CASSCF
-------------------------------------------------------------------------------

------------
SCF SETTINGS
------------
Hamiltonian:
 Density Functional     Method          .... DFT(GTOs)
 Exchange Functional    Exchange        .... B88
   X-Alpha parameter    XAlpha          ....  0.666667
   Becke's b parameter  XBeta           ....  0.004200
 Correlation Functional Correlation     .... LYP
 LDA part of GGA corr.  LDAOpt          .... VWN-5
 Gradients option       PostSCFGGA      .... off
 Hybrid DFT is turned on
   Fraction HF Exchange ScalHFX         ....  0.200000
   Scaling of DF-GGA-X  ScalDFX         ....  0.720000
   Scaling of DF-GGA-C  ScalDFC         ....  0.810000
   Scaling of DF-LDA-C  ScalLDAC        ....  1.000000
   Perturbative correction              ....  0.000000
   NL short-range parameter             ....  4.800000
 RI-approximation to the Coulomb term is turned on
   Number of AuxJ basis functions       .... 306
   RIJ-COSX (HFX calculated with COS-X)).... on


General Settings:
 Integral files         IntName         .... orca
 Hartree-Fock type      HFTyp           .... RHF
 Total Charge           Charge          ....    0
 Multiplicity           Mult            ....    1
 Number of Electrons    NEL             ....   34
 Basis Dimension        Dim             ....  106
 Nuclear Repulsion      ENuc            ....    115.0824457335 Eh

Convergence Acceleration:
 AO-DIIS                CNVDIIS         .... on
   Start iteration      DIISMaxIt       ....    12
   Startup error        DIISStart       ....  0.200000
   # of expansion vecs  DIISMaxEq       ....     5
   Bias factor          DIISBfac        ....   1.050
   Max. coefficient     DIISMaxC        ....  10.000
 MO-DIIS                CNVKDIIS        .... off
 Trust-Rad. Augm. Hess. CNVTRAH         .... auto
   Auto Start mean grad. ratio tolernc. ....  1.125000
   Auto Start start iteration           ....    50
   Auto Start num. interpolation iter.  ....    10
   Max. Number of Micro iterations      ....    24
   Max. Number of Macro iterations      .... Maxiter - #DIIS iter
   Number of Davidson start vectors     ....     2
   Converg. threshold    (grad. norm)   ....   1.000e-05
   Grad. Scal. Fac. for Micro threshold ....   0.100
   Minimum threshold for Micro iter.    ....   1.000e-02
   NR start threshold (gradient norm)   ....   1.000e-04
   Initial trust radius                 ....   0.400
   Minimum AH scaling param. (alpha)    ....   1.000
   Maximum AH scaling param. (alpha)    .... 1000.000
   Quad. conv. algorithm                .... NR
   White noise on init. David. guess    .... on
   Maximum white noise                  ....   0.010
   Pseudo random numbers                .... off
   Inactive MOs                         .... canonical
   Orbital update algorithm             .... Taylor
   Preconditioner                       .... Diag
   Full preconditioner red. dimension   ....   250
 SOSCF                 CNVSOSCF           .... on
   Start iteration     SOSCFMaxIt         ....   150
   Startup grad/error  SOSCFStart         ....  0.003300
   Hessian update      SOSCFHessUp        .... L-BFGS
   Autom. constraints  SOSCFAutoConstrain .... off
 Level Shifting         CNVShift        .... on
   Level shift para.    LevelShift      ....    0.2500
   Turn off err/grad.   ShiftErr        ....    0.0010
 Zerner damping         CNVZerner       .... off
 Static damping         CNVDamp         .... on
   Fraction old density DampFac         ....    0.7000
   Max. Damping (<1)    DampMax         ....    0.9800
   Min. Damping (>=0)   DampMin         ....    0.0000
   Turn off err/grad.   DampErr         ....    0.1000

SCF Procedure:
 Maximum # iterations   MaxIter         ....   125
 SCF integral mode      SCFMode         .... Direct
   Integral package                     .... SHARK and LIBINT hybrid scheme
 Reset frequency        DirectResetFreq ....    20
 Integral Threshold     Thresh          ....  2.500e-11 Eh
 Primitive CutOff       TCut            ....  2.500e-12 Eh

Convergence Tolerance:
 Convergence Check Mode ConvCheckMode   .... Total+1el-Energy
 Convergence forced     ConvForced      .... 0
 Energy Change          TolE            ....  1.000e-08 Eh
 1-El. energy change                    ....  1.000e-05 Eh
 Orbital Gradient       TolG            ....  1.000e-05
 Orbital Rotation angle TolX            ....  1.000e-05
 DIIS Error             TolErr          ....  5.000e-07

------------------------------
INITIAL GUESS: MODEL POTENTIAL
------------------------------
Loading Hartree-Fock densities                     ... done
Calculating cut-offs                               ... done
Initializing the effective Hamiltonian             ... done
Setting up the integral package (SHARK)            ... done
Starting the Coulomb interaction                   ... done (   0.0 sec)
Making the grid                                    ... done (   0.1 sec)
Mapping shells                                     ... done
Starting the XC term evaluation                    ... done (   0.0 sec)
  promolecular density results
     # of electrons  =     33.998048228
     EX              =    -23.719411938
     EC              =     -1.040919806
     EX+EC           =    -24.760331745
Transforming the Hamiltonian                       ... done (   0.0 sec)
Diagonalizing the Hamiltonian                      ... done (   0.0 sec)
Back transforming the eigenvectors                 ... done (   0.0 sec)
Now organizing SCF variables                       ... done
                      ------------------
                      INITIAL GUESS DONE (   0.1 sec)
                      ------------------
             **** ENERGY FILE WAS UPDATED (orca.en.tmp) ****
Finished Guess after   0.3 sec
Maximum memory used throughout the entire GUESS-calculation: 7.5 MB


           ************************************************************
           *        Program running with 6 parallel MPI-processes     *
           *              working on a common directory               *
           ************************************************************

-------------------------------------------------------------------------------------------
                                      ORCA LEAN-SCF
                              memory conserving SCF solver
-------------------------------------------------------------------------------------------

----------------------------------------D-I-I-S--------------------------------------------
Iteration    Energy (Eh)           Delta-E    RMSDP     MaxDP     DIISErr   Damp  Time(sec)
-------------------------------------------------------------------------------------------
               ***  Starting incremental Fock matrix formation  ***
    1    -164.7942265944959672     0.00e+00  1.12e-02  9.40e-02  2.68e-01  0.700   0.5
    2    -164.9002294714522350    -1.06e-01  8.00e-03  6.09e-02  1.20e-01  0.700   0.3
                               ***Turning on AO-DIIS***
    3    -164.9438663335377555    -4.36e-02  3.48e-03  2.73e-02  4.00e-02  0.700   0.4
    4    -164.9698178494883223    -2.60e-02  5.82e-03  3.86e-02  1.93e-02  0.000   0.4
    5    -165.0258450621690827    -5.60e-02  1.11e-03  8.83e-03  8.38e-03  0.000   0.3
                              *** Initializing SOSCF ***
---------------------------------------S-O-S-C-F--------------------------------------
Iteration    Energy (Eh)           Delta-E    RMSDP     MaxDP     MaxGrad    Time(sec)
--------------------------------------------------------------------------------------
    6    -165.0262594617473155    -4.14e-04  3.10e-04  2.09e-03  1.65e-03     0.3
               *** Restarting incremental Fock matrix formation ***
    7    -165.0262741593044211    -1.47e-05  2.10e-04  1.24e-03  2.49e-04     0.5
    8    -165.0262757758649741    -1.62e-06  6.29e-05  6.67e-04  2.24e-04     0.4
    9    -165.0262770050758263    -1.23e-06  2.95e-05  2.93e-04  9.03e-05     0.4
   10    -165.0262769915046306     1.36e-08  1.56e-05  1.55e-04  7.68e-05     0.4
   11    -165.0262770939609709    -1.02e-07  3.33e-06  2.13e-05  5.81e-06     0.4
   12    -165.0262770967647725    -2.80e-09  1.43e-06  1.39e-05  7.26e-06     0.3
                 **** Energy Check signals convergence ****

               *****************************************************
               *                     SUCCESS                       *
               *           SCF CONVERGED AFTER  12 CYCLES          *
               *****************************************************

Recomputing exchange energy using gridx3       ... done (    0.665 sec)
Old exchange energy                            :     -4.895849692 Eh
New exchange energy                            :     -4.895879958 Eh
Exchange energy change after final integration :     -0.000030266 Eh
Total energy after final integration           :   -165.026307363 Eh
             **** ENERGY FILE WAS UPDATED (orca.en.tmp) ****

----------------
TOTAL SCF ENERGY
----------------

Total Energy       :       -165.02630736271533 Eh           -4490.59412 eV

Components:
Nuclear Repulsion  :        115.08244573345542 Eh            3131.55255 eV
Electronic Energy  :       -280.10872282991875 Eh           -7622.14585 eV
One Electron Energy:       -448.34301914222596 Eh          -12200.03379 eV
Two Electron Energy:        168.23429631230724 Eh            4577.88794 eV

Virial components:
Potential Energy   :       -328.08234750083000 Eh           -8927.57454 eV
Kinetic Energy     :        163.05604013811467 Eh            4436.98042 eV
Virial Ratio       :          2.01208337466635

DFT components:
N(Alpha)           :       16.999952250788 electrons
N(Beta)            :       16.999952250788 electrons
N(Total)           :       33.999904501575 electrons
E(X)               :      -19.384340465193 Eh       
E(C)               :       -1.248295634686 Eh       
E(XC)              :      -20.632636099879 Eh       

---------------
SCF CONVERGENCE
---------------

  Last Energy change         ...    2.8038e-09  Tolerance :   1.0000e-08
  Last MAX-Density change    ...    1.3858e-05  Tolerance :   1.0000e-07
  Last RMS-Density change    ...    1.4321e-06  Tolerance :   5.0000e-09
  Last DIIS Error            ...    1.6528e-03  Tolerance :   5.0000e-07
  Last Orbital Gradient      ...    7.2583e-06  Tolerance :   1.0000e-05
  Last Orbital Rotation      ...    5.8795e-06  Tolerance :   1.0000e-05


----------------
ORBITAL ENERGIES
----------------

  NO   OCC          E(Eh)            E(eV) 
   0   2.0000     -14.405021      -391.9806 
   1   2.0000     -14.326338      -389.8395 
   2   2.0000      -6.749140      -183.6534 
   3   2.0000      -6.696470      -182.2202 
   4   2.0000      -0.935170       -25.4473 
   5   2.0000      -0.852246       -23.1908 
   6   2.0000      -0.550256       -14.9732 
   7   2.0000      -0.546212       -14.8632 
   8   2.0000      -0.523837       -14.2543 
   9   2.0000      -0.513703       -13.9786 
  10   2.0000      -0.497558       -13.5392 
  11   2.0000      -0.398007       -10.8303 
  12   2.0000      -0.357813        -9.7366 
  13   2.0000      -0.324309        -8.8249 
  14   2.0000      -0.302068        -8.2197 
  15   2.0000      -0.278914        -7.5896 
  16   2.0000      -0.275894        -7.5074 
  17   0.0000       0.004020         0.1094 
  18   0.0000       0.019027         0.5177 
  19   0.0000       0.072137         1.9630 
  20   0.0000       0.084897         2.3102 
  21   0.0000       0.105925         2.8824 
  22   0.0000       0.145468         3.9584 
  23   0.0000       0.151168         4.1135 
  24   0.0000       0.169476         4.6117 
  25   0.0000       0.177703         4.8355 
  26   0.0000       0.188657         5.1336 
  27   0.0000       0.194527         5.2933 
*Only the first 10 virtual orbitals were printed.

                    ********************************
                    * MULLIKEN POPULATION ANALYSIS *
                    ********************************

-----------------------
MULLIKEN ATOMIC CHARGES
-----------------------
   0 N :    0.035319
   1 B :   -0.158593
   2 B :   -0.067107
   3 N :   -0.036599
   4 H :    0.145805
   5 H :    0.146327
   6 H :    0.111098
   7 H :   -0.064089
   8 H :   -0.105384
   9 H :   -0.116192
  10 H :   -0.085377
  11 H :   -0.039714
  12 H :    0.123180
  13 H :    0.111326
Sum of atomic charges:   -0.0000000

--------------------------------
MULLIKEN REDUCED ORBITAL CHARGES
--------------------------------
  0 N s       :     3.301405  s :     3.301405
      pz      :     1.131002  p :     3.647532
      px      :     1.160785
      py      :     1.355745
      dz2     :     0.002925  d :     0.015744
      dxz     :     0.001618
      dyz     :     0.005300
      dx2y2   :     0.002370
      dxy     :     0.003531

  1 B s       :     2.887841  s :     2.887841
      pz      :     0.861624  p :     2.212498
      px      :     0.870802
      py      :     0.480072
      dz2     :     0.013807  d :     0.058253
      dxz     :     0.007939
      dyz     :     0.006572
      dx2y2   :     0.022037
      dxy     :     0.007898

  2 B s       :     2.954983  s :     2.954983
      pz      :     0.479949  p :     2.041118
      px      :     0.815637
      py      :     0.745532
      dz2     :     0.005470  d :     0.071005
      dxz     :     0.005283
      dyz     :     0.015622
      dx2y2   :     0.021617
      dxy     :     0.023013

  3 N s       :     3.296067  s :     3.296067
      pz      :     1.454779  p :     3.729072
      px      :     1.127053
      py      :     1.147240
      dz2     :     0.000784  d :     0.011461
      dxz     :     0.000873
      dyz     :     0.001956
      dx2y2   :     0.003339
      dxy     :     0.004509

  4 H s       :     0.808569  s :     0.808569
      pz      :     0.023301  p :     0.045626
      px      :     0.010545
      py      :     0.011780

  5 H s       :     0.807992  s :     0.807992
      pz      :     0.017104  p :     0.045681
      px      :     0.014317
      py      :     0.014260

  6 H s       :     0.839976  s :     0.839976
      pz      :     0.009090  p :     0.048925
      px      :     0.029255
      py      :     0.010580

  7 H s       :     1.052946  s :     1.052946
      pz      :     0.002202  p :     0.011144
      px      :     0.008000
      py      :     0.000941

  8 H s       :     1.094202  s :     1.094202
      pz      :     0.007725  p :     0.011182
      px      :     0.002179
      py      :     0.001277

  9 H s       :     1.105032  s :     1.105032
      pz      :     0.005073  p :     0.011160
      px      :     0.003524
      py      :     0.002563

 10 H s       :     1.074181  s :     1.074181
      pz      :     0.002753  p :     0.011196
      px      :     0.003495
      py      :     0.004949

 11 H s       :     1.027590  s :     1.027590
      pz      :     0.001551  p :     0.012124
      px      :     0.009224
      py      :     0.001350

 12 H s       :     0.830280  s :     0.830280
      pz      :     0.014143  p :     0.046540
      px      :     0.014617
      py      :     0.017780

 13 H s       :     0.838741  s :     0.838741
      pz      :     0.011685  p :     0.049933
      px      :     0.027388
      py      :     0.010860



                     *******************************
                     * LOEWDIN POPULATION ANALYSIS *
                     *******************************

----------------------
LOEWDIN ATOMIC CHARGES
----------------------
   0 N :    0.226900
   1 B :   -0.373244
   2 B :   -0.142586
   3 N :    0.076729
   4 H :    0.107869
   5 H :    0.107550
   6 H :    0.097515
   7 H :   -0.053365
   8 H :   -0.058305
   9 H :   -0.060549
  10 H :   -0.060169
  11 H :   -0.044091
  12 H :    0.087042
  13 H :    0.088706

-------------------------------
LOEWDIN REDUCED ORBITAL CHARGES
-------------------------------
  0 N s       :     3.019253  s :     3.019253
      pz      :     1.172842  p :     3.714253
      px      :     1.192434
      py      :     1.348978
      dz2     :     0.008648  d :     0.039594
      dxz     :     0.005251
      dyz     :     0.011213
      dx2y2   :     0.007350
      dxy     :     0.007133

  1 B s       :     2.742989  s :     2.742989
      pz      :     0.946861  p :     2.475176
      px      :     0.949466
      py      :     0.578850
      dz2     :     0.038399  d :     0.155079
      dxz     :     0.021079
      dyz     :     0.019257
      dx2y2   :     0.056298
      dxy     :     0.020045

  2 B s       :     2.770767  s :     2.770767
      pz      :     0.514510  p :     2.192193
      px      :     0.876105
      py      :     0.801578
      dz2     :     0.014071  d :     0.179626
      dxz     :     0.014339
      dyz     :     0.038806
      dx2y2   :     0.054029
      dxy     :     0.058383

  3 N s       :     3.029156  s :     3.029156
      pz      :     1.400228  p :     3.862058
      px      :     1.199957
      py      :     1.261874
      dz2     :     0.001324  d :     0.032057
      dxz     :     0.002361
      dyz     :     0.005070
      dx2y2   :     0.010321
      dxy     :     0.012981

  4 H s       :     0.780750  s :     0.780750
      pz      :     0.058141  p :     0.111382
      px      :     0.021955
      py      :     0.031286

  5 H s       :     0.780889  s :     0.780889
      pz      :     0.039606  p :     0.111561
      px      :     0.032004
      py      :     0.039950

  6 H s       :     0.782489  s :     0.782489
      pz      :     0.018271  p :     0.119996
      px      :     0.073715
      py      :     0.028010

  7 H s       :     1.023782  s :     1.023782
      pz      :     0.006992  p :     0.029583
      px      :     0.018563
      py      :     0.004028

  8 H s       :     1.028805  s :     1.028805
      pz      :     0.017581  p :     0.029500
      px      :     0.007174
      py      :     0.004746

  9 H s       :     1.031207  s :     1.031207
      pz      :     0.012321  p :     0.029342
      px      :     0.010031
      py      :     0.006989

 10 H s       :     1.030565  s :     1.030565
      pz      :     0.006762  p :     0.029604
      px      :     0.010828
      py      :     0.012014

 11 H s       :     1.012555  s :     1.012555
      pz      :     0.004749  p :     0.031536
      px      :     0.020940
      py      :     0.005847

 12 H s       :     0.795661  s :     0.795661
      pz      :     0.039705  p :     0.117297
      px      :     0.033592
      py      :     0.044000

 13 H s       :     0.783199  s :     0.783199
      pz      :     0.033638  p :     0.128095
      px      :     0.071338
      py      :     0.023119



                      *****************************
                      * MAYER POPULATION ANALYSIS *
                      *****************************

  NA   - Mulliken gross atomic population
  ZA   - Total nuclear charge
  QA   - Mulliken gross atomic charge
  VA   - Mayer's total valence
  BVA  - Mayer's bonded valence
  FA   - Mayer's free valence

  ATOM       NA         ZA         QA         VA         BVA        FA
  0 N      6.9647     7.0000     0.0353     3.6502     3.6502    -0.0000
  1 B      5.1586     5.0000    -0.1586     3.6846     3.6846    -0.0000
  2 B      5.0671     5.0000    -0.0671     3.6315     3.6315    -0.0000
  3 N      7.0366     7.0000    -0.0366     3.5583     3.5583    -0.0000
  4 H      0.8542     1.0000     0.1458     0.9823     0.9823    -0.0000
  5 H      0.8537     1.0000     0.1463     0.9818     0.9818    -0.0000
  6 H      0.8889     1.0000     0.1111     1.0597     1.0597    -0.0000
  7 H      1.0641     1.0000    -0.0641     0.9610     0.9610     0.0000
  8 H      1.1054     1.0000    -0.1054     0.9694     0.9694    -0.0000
  9 H      1.1162     1.0000    -0.1162     0.9557     0.9557     0.0000
 10 H      1.0854     1.0000    -0.0854     0.9531     0.9531    -0.0000
 11 H      1.0397     1.0000    -0.0397     0.9574     0.9574     0.0000
 12 H      0.8768     1.0000     0.1232     0.9933     0.9933    -0.0000
 13 H      0.8887     1.0000     0.1113     1.0553     1.0553    -0.0000

  Mayer bond orders larger than 0.100000
B(  0-N ,  1-B ) :   0.7941 B(  0-N ,  4-H ) :   0.9670 B(  0-N ,  5-H ) :   0.9641 
B(  0-N ,  6-H ) :   0.9423 B(  1-B ,  7-H ) :   0.9726 B(  1-B ,  8-H ) :   0.9666 
B(  1-B ,  9-H ) :   0.9256 B(  2-B ,  3-N ) :   1.6761 B(  2-B , 10-H ) :   0.9063 
B(  2-B , 11-H ) :   0.9639 B(  3-N , 12-H ) :   0.9514 B(  3-N , 13-H ) :   0.9310 


-------
TIMINGS
-------

Total SCF time: 0 days 0 hours 0 min 5 sec 

Total time                  ....       5.762 sec
Sum of individual times     ....       5.410 sec  ( 93.9%)

SCF preparation             ....       0.171 sec  (  3.0%)
Fock matrix formation       ....       5.004 sec  ( 86.8%)
  Startup                   ....       0.005 sec  (  0.1% of F)
  Split-RI-J                ....       0.393 sec  (  7.9% of F)
  Chain of spheres X        ....       3.622 sec  ( 72.4% of F)
  XC integration            ....       1.142 sec  ( 22.8% of F)
    XC Preparation          ....       0.000 sec  (  0.0% of XC)
    Basis function eval.    ....       0.384 sec  ( 33.7% of XC)
    Density eval.           ....       0.188 sec  ( 16.5% of XC)
    XC-Functional eval.     ....       0.083 sec  (  7.3% of XC)
    XC-Potential eval.      ....       0.194 sec  ( 17.0% of XC)
Diagonalization             ....       0.000 sec  (  0.0%)
Density matrix formation    ....       0.030 sec  (  0.5%)
Total Energy calculation    ....       0.015 sec  (  0.3%)
Population analysis         ....       0.016 sec  (  0.3%)
Orbital Transformation      ....       0.015 sec  (  0.3%)
Orbital Orthonormalization  ....       0.000 sec  (  0.0%)
DIIS solution               ....       0.105 sec  (  1.8%)
SOSCF solution              ....       0.054 sec  (  0.9%)
Finished LeanSCF after   5.8 sec

Maximum memory used throughout the entire LEANSCF-calculation: 9.5 MB


-------------------------------------------------------------------------------
                          DFT DISPERSION CORRECTION                            
                                                                               
                              DFTD3 V3.1  Rev 1                                
                          USING Becke-Johnson damping                          
-------------------------------------------------------------------------------
The B3LYP functional is recognized
Active option DFTDOPT                   ...         4   

molecular C6(AA) [au] = 1326.848156 


            DFT-D V3
 parameters
 s6 scaling factor         :     1.0000 
 a1 scaling factor         :     0.3981 
 s8 scaling factor         :     1.9889 
 a2 scaling factor         :     4.4211 
 ad hoc parameters k1-k3   :    16.0000     1.3333    -4.0000 

 Edisp/kcal,au: -8.357161443325  -0.013317983070 
 E6   /kcal   :  -4.231944158 
 E8   /kcal   :  -4.125217285 
 % E8         :  49.361464575 

-------------------------   ----------------
Dispersion correction           -0.013317983
-------------------------   ----------------


-------------------------   --------------------
FINAL SINGLE POINT ENERGY      -165.039625345785
-------------------------   --------------------



           ************************************************************
           *        Program running with 6 parallel MPI-processes     *
           *              working on a common directory               *
           ************************************************************
------------------------------------------------------------------------------
                         ORCA SCF GRADIENT CALCULATION
------------------------------------------------------------------------------

Nuc. rep. gradient        (SHARK) ... done (  0.0 sec)
HCore & Overlap gradient  (SHARK) ... done (  0.0 sec)
Split-RIJ-J gradient      (SHARK) ... done (  0.2 sec)
done (  2.3 sec)
XC gradient                       ... done (  0.6 sec)
Dispersion correction             ... done (  0.0 sec)

-------------------
DISPERSION GRADIENT
-------------------

   1   N   :    0.000425846   -0.000138983    0.000056509
   2   B   :    0.000465219    0.000210745    0.000038626
   3   B   :   -0.000600404   -0.000149352   -0.000029579
   4   N   :   -0.000504798    0.000198842   -0.000102132
   5   H   :    0.000117642   -0.000148486    0.000103961
   6   H   :    0.000120790   -0.000163155   -0.000038361
   7   H   :    0.000101641   -0.000211949    0.000034070
   8   H   :   -0.000049032    0.000082357   -0.000027905
   9   H   :    0.000246248    0.000090078    0.000081282
  10   H   :    0.000302031    0.000084690   -0.000038396
  11   H   :   -0.000283865   -0.000113551    0.000007293
  12   H   :   -0.000078234   -0.000056774    0.000001696
  13   H   :   -0.000118684    0.000123479   -0.000057938
  14   H   :   -0.000144399    0.000192061   -0.000029126

Difference to translation invariance:
           :   -0.0000000000   -0.0000000000   -0.0000000000

Difference to rotation invariance:
           :   -0.0000000000   -0.0000000000    0.0000000000

Norm of the Dispersion gradient    ...    0.0012960627
RMS gradient                       ...    0.0001999868
MAX gradient                       ...    0.0006004038

------------------
CARTESIAN GRADIENT
------------------

   1   N   :    0.000113767    0.000161844   -0.000235193
   2   B   :    0.000075585    0.000082250    0.000013015
   3   B   :    0.000080911   -0.000077941    0.000069716
   4   N   :    0.000041821    0.000010352   -0.000053817
   5   H   :   -0.000032173   -0.000039544    0.000037878
   6   H   :   -0.000109236    0.000003566    0.000115270
   7   H   :   -0.000068185   -0.000091256    0.000040012
   8   H   :   -0.000023779    0.000004518   -0.000049153
   9   H   :    0.000025059   -0.000046140    0.000027947
  10   H   :   -0.000014082   -0.000003415    0.000061258
  11   H   :   -0.000012201   -0.000037878    0.000020076
  12   H   :   -0.000025334    0.000022058    0.000010453
  13   H   :   -0.000048014    0.000011778   -0.000003679
  14   H   :   -0.000004140   -0.000000191   -0.000053783

Difference to translation invariance:
           :    0.0000000000    0.0000000000   -0.0000000000

Difference to rotation invariance:
           :   -0.0003019443    0.0002570665    0.0002943189

Norm of the Cartesian gradient     ...    0.0004384879
RMS gradient                       ...    0.0000676602
MAX gradient                       ...    0.0002351928

-------
TIMINGS
-------

Total SCF gradient time     ....        3.108 sec

Densities                   ....       0.000 sec  (  0.0%)
One electron gradient       ....       0.029 sec  (  0.9%)
RI-J Coulomb gradient       ....       0.181 sec  (  5.8%)
COSX gradient               ....       2.296 sec  ( 73.9%)
XC gradient                 ....       0.564 sec  ( 18.2%)

Maximum memory used throughout the entire SCFGRAD-calculation: 27.4 MB


           ************************************************************
           *        Program running with 6 parallel MPI-processes     *
           *              working on a common directory               *
           ************************************************************

------------------------------------------------------------------------------
                              ORCA PROPERTY CALCULATIONS
------------------------------------------------------------------------------

GBWName                                 ... orca.gbw
Number of atoms                         ...     14
Number of basis functions               ...    106
Max core memory                         ...   4096 MB

Electric properties:
Dipole moment                           ... YES
Quadrupole moment                       ...  NO
Static polarizability (Dipole/Dipole)   ...  NO
Static polarizability (Dipole/Quad.)    ...  NO
Static polarizability (Quad./Quad.)     ...  NO
Static polarizability (Velocity)        ...  NO
Static hyperpolarizability              ...  NO

Atomic electric properties:
Dipole moment                           ...  NO
Quadrupole moment                       ...  NO
Static polarizability                   ...  NO

Choice of electric origin               ... Center of mass
Position of electric origin             ...    -0.336735     0.040415    -0.055220

General magnetic properties:
Magnetizability                         ...  NO

EPR properties:
g-Tensor (aka g-matrix)                 ...  NO
Zero-Field splitting spin-orbit         ...  NO
Zero-field splitting spin-spin          ...  NO
Hyperfine couplings                     ...  NO (   0 nuclei)
Quadrupole couplings                    ...  NO (   0 nuclei)
Contact density                         ...  NO (   0 nuclei)

NMR properties:
Chemical shifts                         ...  NO (   0 nuclei)
Spin-rotation constants                 ...  NO (   0 nuclei)
Spin-spin couplings                     ...  NO (   0 nuclei,    0 pairs)

Choice of magnetic origin               ... GIAO
Position of magnetic origin             ...     0.000000     0.000000     0.000000

Properties with geometric perturbations:
SCF Hessian                             ...  NO
IR spectrum                             ...  NO
VCD spectrum                            ...  NO
X-ray spectroscopy properties:
SCF XES/XAS/RIXS spectra                ...  NO

SCF SOC stabilization energy            ...  NO
Diagonal Born-Oppenheimer correction    ...  NO

-------------
DIPOLE MOMENT
-------------

Method             : SCF
Type of density    : Electron Density
Multiplicity       :   1
Irrep              :   0
Energy             :  -165.0263073627153290 Eh
Basis              : AO
                                X                 Y                 Z
Electronic contribution:     -2.826533287      -0.745333097      -0.348332612
Nuclear contribution   :      2.741163369      -0.507374834       0.391641989
                        -----------------------------------------
Total Dipole Moment    :     -0.085369918      -1.252707931       0.043309377
                        -----------------------------------------
Magnitude (a.u.)       :      1.256360174
Magnitude (Debye)      :      3.193413776



--------------------
Rotational spectrum 
--------------------
 
Rotational constants in cm-1:             0.366942             0.089345             0.074266 
Rotational constants in MHz :         11000.633977          2678.485133          2226.440050 

Dipole components along the rotational axes: 
x,y,z [a.u.] :     0.067265    -1.243735     0.164440 
x,y,z [Debye]:     0.170974    -3.161322     0.417975 

 

Dipole moment calculation done in   0.0 sec 

Maximum memory used throughout the entire PROP-calculation: 5.5 MB

--------------------------------
SUGGESTED CITATIONS FOR THIS RUN
--------------------------------

Below you find a list of papers that are relevant to this ORCA run
We neither can nor want to force you to cite these papers, but we appreciate if you do
You receive ORCA, which is the product of decades of hard work by many enthusiastic individuals, for free
The only thing we kindly ask in return is that you cite our papers,
We deeply appreciate it, if you show your appreciation for ORCA by not just citing the generic ORCA reference.

Please note that relegating all ORCA citations to the supporting information does *not* help us.
SI sections are not indexed - citations you put there will not count into any citation statistics
But we need these citations in order to attract the funding resources that allow us to do what we are doing

Therefore, if you are a happy ORCA user, please consider citing a few of the papers listed below in the main body of your paper

In addition to the list printed below, the program has created the file orca.bibtex that contains the list in bibtex format
You can import this file easily into all common literature databanks and citation aid programs


List of essential papers. We consider these as the minimum necessary citations

  1. Neese, F.
     Software update: the ORCA program system, version 6.0
     WIRES Comput. Molec. Sci. 2025 15(1), e70019
     doi.org/10.1002/wcms.7019

List of papers to cite with high priority. The work reported in these papers was absolutely
necessary for this run to complete.
Our perspective: the developers of density functionals and basis sets usually get cited in chemistry papers
Good! But without the algorithms to do something with them, the functionals or basis sets would not do anything.
Hence, in our opinion, the algorithm design and method developments papers are equally worthy of getting cited

  1. Neese, F.
     An improvement of the resolution of the identity approximation for the formation of the Coulomb matrix
     J. Comp. Chem. 2003 24(14), 1740-1747
     doi.org/10.1002/jcc.10318
  2. Neese, F.; Wennmohs, F.; Hansen, A.; Becker, U.
     Efficient, approximate and parallel Hartree-Fock and hybrid DFT calculations. A 'chain-of-spheres' algorithm for the Hartree-Fock exchange
     Chem. Phys. 2009 356(1-3), 98-109
     doi.org/10.1016/j.chemphys.2008.10.036
  3. Grimme, S.; Antony, J.; Ehrlich, S.; Krieg, H.
     A consistent and accurate ab initio parametrization of density functional dispersion correction (DFT-D) for the 94 elements H-Pu
     J. Chem. Phys. 2010 132 , 154104
     doi.org/10.1063/1.3382344
  4. Grimme, S.; Ehrlich, S.; Goerigk, L.
     Effect of the damping function in dispersion corrected density functional theory
     J. Comput. Chem. 2011 32(7), 1456-1465
     doi.org/10.1002/jcc.21759
  5. Helmich-Paris, B.; de Souza, B.; Neese, F.; Izsák, R.
     An improved chain of spheres for exchange algorithm
     J. Chem. Phys. 2021 155(10), 104109
     doi.org/10.1063/5.0058766
  6. Neese, F.
     The SHARK Integral Generation and Digestion System
     J. Comp. Chem. 2022 44(3), 381
     doi.org/10.1002/jcc.26942

List of suggested additional citations. These are papers that are important in the 'surrounding' of 
of this run, or papers that preceded the highly important papers. If you like your results we are grateful for a citation.

  1. Izsak, R.; Neese, F.
     An overlap fitted chain of spheres exchange method
     J. Chem. Phys. 2011 135 , 144105
     doi.org/10.1063/1.3646921
  2. Izsak, R.; Hansen, A.; Neese, F.
     The resolution of identity and chain of spheres approximations for the LPNO-CCSD singles Fock term
     Molec. Phys. 2012 110 , 2413-2417
     doi.org/10.1080/00268976.2012.687466
  3. Neese, F.
     The ORCA program system
     WIRES Comput. Molec. Sci. 2012 2(1), 73-78
     doi.org/10.1002/wcms.81
  4. Izsak, R.; Neese, F.; Klopper, W.
     Robust fitting techniques in the chain of spheres approximation to the Fock exchange: The role of the complementary space
     J. Chem. Phys. 2013 139 , 
     doi.org/10.1063/1.4819264
  5. Neese, F.
     Software update: the ORCA program system, version 4.0
     WIRES Comput. Molec. Sci. 2018 8(1), 1-6
     doi.org/10.1002/wcms.1327
  6. Neese, F.; Wennmohs, F.; Becker, U.; Riplinger, C.
     The ORCA quantum chemistry program package
     J. Chem. Phys. 2020 152(22), 224108
     doi.org/10.1063/5.0004608
  7. Neese, F.
     Software update: The ORCA program system—Version 5.0
     WIRES Comput. Molec. Sci. 2022 12(1), e1606
     doi.org/10.1002/wcms.1606

List of optional additional citations

  1. Neese, F.
     Approximate second-order SCF convergence for spin unrestricted wavefunctions
     Chem. Phys. Lett. 2000 325(1-3), 93-98
     doi.org/10.1016/s0009-2614(00)00662-x

Timings for individual modules:

Sum of individual times          ...       11.908 sec (=   0.198 min)
Startup calculation              ...        1.169 sec (=   0.019 min)   9.8 %
SCF iterations                   ...        6.707 sec (=   0.112 min)  56.3 %
Property calculations            ...        0.428 sec (=   0.007 min)   3.6 %
SCF Gradient evaluation          ...        3.604 sec (=   0.060 min)  30.3 %
                             ****ORCA TERMINATED NORMALLY****
TOTAL RUN TIME: 0 days 0 hours 0 minutes 12 seconds 482 msec
