
                                 *****************
                                 * O   R   C   A *
                                 *****************

                                            #,                                       
                                            ###                                      
                                            ####                                     
                                            #####                                    
                                            ######                                   
                                           ########,                                 
                                     ,,################,,,,,                         
                               ,,#################################,,                 
                          ,,##########################################,,             
                       ,#########################################, ''#####,          
                    ,#############################################,,   '####,        
                  ,##################################################,,,,####,       
                ,###########''''           ''''###############################       
              ,#####''   ,,,,##########,,,,          '''####'''          '####       
            ,##' ,,,,###########################,,,                        '##       
           ' ,,###''''                  '''############,,,                           
         ,,##''                                '''############,,,,        ,,,,,,###''
      ,#''                                            '''#######################'''  
     '                                                          ''''####''''         
             ,#######,   #######,   ,#######,      ##                                
            ,#'     '#,  ##    ##  ,#'     '#,    #''#        ,####,    ,#,          
            ##       ##  ##   ,#'  ##            #'  '#       #'       ,# #          
            ##       ##  #######   ##           ,######,      #####,      #          
            '#,     ,#'  ##    ##  '#,     ,#' ,#      #,     #,   #      #          
             '#######'   ##     ##  '#######'  #'      '#     '####' #    #          



                #########################################################
                #                        -***-                          #
                #          Department of theory and spectroscopy        #
                #                                                       #
                #                      Frank Neese                      #
                #                                                       #
                #     Directorship, Architecture, Infrastructure        #
                #                    SHARK, DRIVERS                     #
                #        Core code/Algorithms in most modules           #
                #                                                       #
                #        Max Planck Institute fuer Kohlenforschung      #
                #                Kaiser Wilhelm Platz 1                 #
                #                 D-45470 Muelheim/Ruhr                 #
                #                      Germany                          #
                #                                                       #
                #                  All rights reserved                  #
                #                        -***-                          #
                #########################################################


                         Program Version 6.1.0  -  RELEASE   -
                                (GIT: $679e74b$)
                          ($2025-06-10 18:02:51 +0200$)


 With contributions from (in alphabetic order):
[Max-Planck-Institut fuer Kohlenforschung]                               
  Daniel Aravena         : Magnetic Suceptibility                        
  Michael Atanasov       : Ab Initio Ligand Field Theory (pilot matlab implementation)
  Alexander A. Auer      : GIAO ZORA, VPT2 properties, NMR spectrum      
  Ute Becker             : All parallelization in ORCA, NUMFREQ, NUMCALC 
  Giovanni Bistoni       : ED, misc. LED, open-shell LED, HFLD           
  Dmytro Bykov           : pre 5.0 version of the SCF Hessian            
  Marcos Casanova-Páez   : Triplet and SCS-CIS(D). UHF-(DLPNO)-IP/EA/STEOM-CCSD. UHF-CVS-IP/STEOM-CCSD   
  Vijay G. Chilkuri      : MRCI spin determinant printing, contributions to CSF-ICE 
  Pauline Colinet        : FMM embedding                                 
  Dipayan Datta          : RHF DLPNO-CCSD density                        
  Achintya Kumar Dutta   : EOM-CC, STEOM-CC                              
  Nicolas Foglia         : Exact transition moments, OPA infrastructure, MCD improvements    
  Dmitry Ganyushin       : Spin-Orbit,Spin-Spin,Magnetic field MRCI      
  Miquel Garcia-Rates    : C-PCM and meta-GGA Hessian, CCSD/C-PCM, Gaussian charge scheme 
  Tiago L. C. Gouveia    : GS-ROHF, GS-ROCIS                             
  Yang Guo               : DLPNO-NEVPT2, F12-NEVPT2, CIM, IAO-localization        
  Andreas Hansen         : Spin unrestricted coupled pair/coupled cluster methods 
  Ingolf Harden          : AUTO-CI MPn and infrastructure                
  Benjamin Helmich-Paris : MC-RPA, TRAH-(SCF,CASSCF), AVAS, COSX integrals, SCF dyn. polar., MC-PDFT, srDFT 
  Lee Huntington         : MR-EOM, pCC                                   
  Robert Izsak           : Overlap fitted RIJCOSX, COSX-SCS-MP3, EOM     
  Riya Kayal             : Wick's Theorem for AUTO-CI, AUTO-CI UHF-CCSDT 
  Emily Kempfer          : AUTO-CI RHF CISDT and CCSDT, approximate NEVPT4
  Christian Kollmar      : KDIIS, OOCD, Brueckner-CCSD(T), CCSD density, CASPT2, CASPT2-K, improved NEVPT2 
  Axel Koslowski         : Symmetry handling                             
  Simone Kossmann        : meta-GGA functionals, TD-DFT gradient, OOMP2, (MP2 Hessian; deprecated post 5.0) 
  Lucas Lang             : DCDCAS, Hyperfine gauge corrections, ICE-SOC+SSC
  Marvin Lechner         : AUTO-CI (C++ implementation), FIC-MRCC        
  Spencer Leger          : CASSCF response                               
  Dagmar Lenk            : GEPOL surface, SMD, ORCA-2-JSON               
  Dimitrios Liakos       : Extrapolation schemes; Compound Job, Property file
  Dimitrios Manganas     : Further ROCIS development; embedding schemes. LFT, Crystal Embedding 
  Dimitrios Pantazis     : SARC Basis sets                               
  Anastasios Papadopoulos: AUTO-CI, single reference methods and gradients 
  Taras Petrenko         : pre 6.0 DFT Hessian and TD-DFT gradient,  ECA, NRVS 
  Petra Pikulova         : Analytic Raman intensities                    
  Peter Pinski           : DLPNO-MP2, DLPNO-MP2 Gradient                 
  Shashank Vittal Rao    : ES-AILFT, MagRelax                            
  Christoph Reimann      : Effective Core Potentials                     
  Marius Retegan         : Local ZFS, SOC                                
  Christoph Riplinger    : Optimizer, TS searches, QM/MM, DLPNO-CCSD(T), (RO)-DLPNO pert. Triples 
  Michael Roemelt        : Original ROCIS implementation, recursive CI coupling coefficients
  Masaaki Saitow         : Open-shell DLPNO-CCSD energy and density      
  Barbara Sandhoefer     : DKH picture change effects                    
  Yorick L. A. Schmerwitz: GMF and freeze-and-release deltaSCF, NEB S-IDPP initial path                    
  Kantharuban Sivalingam : CASSCF convergence/infrastructure, NEVPT2, NEVPT3, NEVPT4(SD), FIC-MRCI and CEPA variants
  Bernardo de Souza      : ESD, SOC TD-DFT                               
  Georgi L. Stoychev     : AutoAux, RI-MP2 NMR, DLPNO-MP2 response, X2C  
  Van Anh Tran           : RI-MP2 g-tensors                              
  Willem Van den Heuvel  : Paramagnetic NMR                              
  Zikuan Wang            : NOTCH, Electric field optimization            
  Frank Wennmohs         : Technical directorship and infrastructure     
  Hang Xu                : AUTO-CI-Response properties                   
                                                                         
[FACCTs GmbH]                                                            
  Markus Bursch, Nicolas Foglia, Miquel Garcia-Rates, Ingolf Harden, Hagen Neugebauer, Anastasios Papadopoulos, 
  Christoph Riplinger, Bernardo de Souza, Georgi L. Stoychev                                                    
                                                                 
  APM, various basis sets, CI-OPT, improved COSX, DLPNO-Multilevel,           
  DOCKER, DRACO, updates on ESD, Fragmentator, GOAT, IRC, LR-CPCM, L-BFGS, MBIS, meta-GGA TD-DFT gradient, ML-optimized integration grids, 
  MM, NACMEs, nearIR, NEB, NEB-TS, NL-DFT gradient (VV10), 2- and 3-layer-ONIOM, interface openCOSMO-RS, QMMM,   
  Crystal-QMMM, RESP, rigid body optimization, SF, symmetry and pop. for TD-DFT, various functionals, SOLVATOR                                   
                                                                         
[Other institutions]                                                     
  V. Asgeirsson          : NEB                                           
  Christoph Bannwarth    : sTDA-DFT, sTD-DFT, PBEh-3c, B97-3c, D3        
  Giovanni Bistoni       : ETS/NOCV, ADLD/ADEX, COVALED                  
  Martin Brehm           : Molecular dynamics                            
  Ronald Cardenas        : ETS/NOCV                                      
  Martina Colucci        : COVALED                                       
  Sebastian Ehlert       : rSCAN, r2SCAN, r2SCAN-3c, D4, dhf basis sets  
  Marvin Friede          : D4 for Fr, Ra, Ac-Lr                          
  Lars Goerigk           : TD-DFT with DH, B97 family of functionals     
  Stefan Grimme          : VdW corrections, initial TS optimization, DFT functionals, gCP, sTDA/sTD-DF 
  Waldemar Hujo          : DFT-NL                                        
  H. Jonsson             : NEB                                           
  Holger Kruse           : gCP                                           
  Marcel Mueller         : wB97X-3c, vDZP basis set                      
  Hagen Neugebauer       : wr2SCAN, Native XTB                           
  Gianluca Regni         : ADLD/ADEX                                     
  Tobias Risthaus        : pre 6.0 range-separated hybrid DFT and stability analysis
  Lukas Wittmann         : regularized MP2, r2SCAN double-hybrids, wr2SCAN        
                                                                         
We gratefully acknowledge several colleagues who have allowed us to      
interface, adapt or use parts of their codes:                            
  Ed Valeev, F. Pavosevic, A. Kumar             : LibInt (2-el integral package), F12 methods 
  Garnet Chan, S. Sharma, J. Yang, R. Olivares  : DMRG                   
  Ulf Ekstrom                                   : XCFun DFT Library      
  Mihaly Kallay                                 : mrcc  (arbitrary order and MRCC methods)
  Frank Weinhold                                : gennbo (NPA and NBO analysis)           
  Simon Mueller                                 : openCOSMO-RS                            
  Christopher J. Cramer and Donald G. Truhlar   : smd solvation model                     
  S Lehtola, MJT Oliveira, MAL Marques          : LibXC Library                           
  Liviu Ungur et al                             : ANISO software                          


 Your calculation uses the libint2 library for the computation of 2-el integrals
 For citations please refer to: http://libint.valeyev.net

 Your ORCA version has been built with support for libXC version: 7.0.0
 For citations please refer to: https://libxc.gitlab.io

 This ORCA versions uses:
   CBLAS   interface :  Fast vector & matrix operations
   LAPACKE interface :  Fast linear algebra routines
   SCALAPACK package :  Parallel linear algebra routines
   Shared memory     :  Shared parallel matrices
   BLAS/LAPACK       :  OpenBLAS 0.3.29  USE64BITINT DYNAMIC_ARCH NO_AFFINITY Zen SINGLE_THREADED
        Core in use  :  Zen
   Copyright (c) 2011-2014, The OpenBLAS Project


  ***********************************
  * Starting time: Wed Sep 10 13:34:45 2025
  * Host name:     wyk-Server
  * Process ID:    2285374
  * Working dir.:  /home/wyk/Documents/code/openQDC/MGMR/singlepointcalc/33/prod
  ***********************************

Your calculation utilizes the atom-pairwise dispersion correction
with the Becke-Johnson damping scheme (D3BJ)


Warning: RI is on but no J-basis has been assigned. Assigning Def2/J (nothing to worry about!)
================================================================================

----- Orbital basis set information -----
Your calculation utilizes the basis: def2-SVP
   F. Weigend and R. Ahlrichs, Phys. Chem. Chem. Phys. 7, 3297 (2005).

----- AuxJ basis set information -----
Your calculation utilizes the auxiliary basis: def2/J
   H-Rn: F. Weigend, Phys. Chem. Chem. Phys. 8, 1057 (2006).
   Fr-Lr: K. Eichkorn, F. Weigend, O. Treutler, R. Ahlrichs; Theor. Chem. Acc. 97, 119 (1997).

================================================================================
                                        WARNINGS
                       Please study these warnings very carefully!
================================================================================


================================================================================
                                       INPUT FILE
================================================================================
NAME = orca.inp
|  1> ! B3LYP def2-SVP d3 EnGrad 
|  2> %pal nprocs 6 end 
|  3> *xyz 0 1 
|  4> C   1.31929815048793 -0.10123225093485 -0.04695781187089
|  5> O   0.01895841547674 1.87973254980771 0.37553887425429
|  6> C   0.00765452733703 0.7104339948418 0.13714864580148
|  7> F   2.33775795862233 0.71650697865042 -0.27308864983278
|  8> F   1.20139471212655 -0.94819066155561 -1.07547561159721
|  9> C   -1.31966977606333 -0.08275894077626 -0.01013035284087
| 10> F   1.56644257208483 -0.80743706503063 1.06139297134305
| 11> F   -2.32478430294059 0.59735021522763 0.52312706559621
| 12> F   -1.57167942415959 -0.28721259174115 -1.30723110860252
| 13> F   -1.22337183297191 -1.26966522848908 0.59890297774923
| 14> *
| 15> 
| 16>                          ****END OF INPUT****
================================================================================

                     *******************************
                     * Energy+Gradient Calculation *
                     *******************************

---------------------------------
CARTESIAN COORDINATES (ANGSTROEM)
---------------------------------
  C      1.319298   -0.101232   -0.046958
  O      0.018958    1.879733    0.375539
  C      0.007655    0.710434    0.137149
  F      2.337758    0.716507   -0.273089
  F      1.201395   -0.948191   -1.075476
  C     -1.319670   -0.082759   -0.010130
  F      1.566443   -0.807437    1.061393
  F     -2.324784    0.597350    0.523127
  F     -1.571679   -0.287213   -1.307231
  F     -1.223372   -1.269665    0.598903

----------------------------
CARTESIAN COORDINATES (A.U.)
----------------------------
  NO LB      ZA    FRAG     MASS         X           Y           Z
   0 C     6.0000    0    12.011    2.493112   -0.191301   -0.088737
   1 O     8.0000    0    15.999    0.035826    3.552180    0.709666
   2 C     6.0000    0    12.011    0.014465    1.342526    0.259173
   3 F     9.0000    0    18.998    4.417722    1.354002   -0.516063
   4 F     9.0000    0    18.998    2.270307   -1.791821   -2.032354
   5 C     6.0000    0    12.011   -2.493814   -0.156392   -0.019144
   6 F     9.0000    0    18.998    2.960147   -1.525835    2.005742
   7 F     9.0000    0    18.998   -4.393206    1.128828    0.988567
   8 F     9.0000    0    18.998   -2.970044   -0.542753   -2.470309
   9 F     9.0000    0    18.998   -2.311838   -2.399320    1.131763

--------------------------------
INTERNAL COORDINATES (ANGSTROEM)
--------------------------------
 C      0   0   0     0.000000000000     0.00000000     0.00000000
 O      1   0   0     2.406991569993     0.00000000     0.00000000
 C      2   1   0     1.193405542787    33.24588177     0.00000000
 F      1   2   3     1.325553840576    86.40557599   163.71817918
 F      1   2   3     1.337568179366   127.48001321    52.31466360
 C      3   2   1     1.553266217669   121.82864717   180.17855740
 F      1   2   3     1.337253552334   112.89165672   272.81424779
 F      6   3   2     1.325581815860   110.35292477   342.40079830
 F      6   3   2     1.337079103391   109.33741890   102.29801743
 F      6   3   2     1.337513150375   110.39311359   221.75890111

---------------------------
INTERNAL COORDINATES (A.U.)
---------------------------
 C      0   0   0     0.000000000000     0.00000000     0.00000000
 O      1   0   0     4.548554873944     0.00000000     0.00000000
 C      2   1   0     2.255209642571    33.24588177     0.00000000
 F      1   2   3     2.504933734456    86.40557599   163.71817918
 F      1   2   3     2.527637544449   127.48001321    52.31466360
 C      3   2   1     2.935247764467   121.82864717   180.17855740
 F      1   2   3     2.527042985524   112.89165672   272.81424779
 F      6   3   2     2.504986600081   110.35292477   342.40079830
 F      6   3   2     2.526713324797   109.33741890   102.29801743
 F      6   3   2     2.527533554727   110.39311359   221.75890111

---------------------
BASIS SET INFORMATION
---------------------
There are 3 groups of distinct atoms

 Group   1 Type C   : 7s4p1d contracted to 3s2p1d pattern {511/31/1}
 Group   2 Type O   : 7s4p1d contracted to 3s2p1d pattern {511/31/1}
 Group   3 Type F   : 7s4p1d contracted to 3s2p1d pattern {511/31/1}

Atom   0C    basis set group =>   1
Atom   1O    basis set group =>   2
Atom   2C    basis set group =>   1
Atom   3F    basis set group =>   3
Atom   4F    basis set group =>   3
Atom   5C    basis set group =>   1
Atom   6F    basis set group =>   3
Atom   7F    basis set group =>   3
Atom   8F    basis set group =>   3
Atom   9F    basis set group =>   3
---------------------------------
AUXILIARY/J BASIS SET INFORMATION
---------------------------------
There are 3 groups of distinct atoms

 Group   1 Type C   : 12s5p4d2f1g contracted to 6s4p3d1f1g pattern {711111/2111/211/2/1}
 Group   2 Type O   : 12s5p4d2f1g contracted to 6s4p3d1f1g pattern {711111/2111/211/2/1}
 Group   3 Type F   : 12s5p4d2f1g contracted to 6s4p3d1f1g pattern {711111/2111/211/2/1}

Atom   0C    basis set group =>   1
Atom   1O    basis set group =>   2
Atom   2C    basis set group =>   1
Atom   3F    basis set group =>   3
Atom   4F    basis set group =>   3
Atom   5C    basis set group =>   1
Atom   6F    basis set group =>   3
Atom   7F    basis set group =>   3
Atom   8F    basis set group =>   3
Atom   9F    basis set group =>   3


           ************************************************************
           *        Program running with 6 parallel MPI-processes     *
           *              working on a common directory               *
           ************************************************************
------------------------------------------------------------------------------
                             ORCA STARTUP CALCULATIONS
                           -- RI-GTO INTEGRALS CHOSEN --
------------------------------------------------------------------------------
------------------------------------------------------------------------------
                   ___                                                        
                  /   \      - P O W E R E D   B Y -                         
                 /     \                                                     
                 |  |  |   _    _      __       _____    __    __             
                 |  |  |  | |  | |    /  \     |  _  \  |  |  /  |          
                  \  \/   | |  | |   /    \    | | | |  |  | /  /          
                 / \  \   | |__| |  /  /\  \   | |_| |  |  |/  /          
                |  |  |   |  __  | /  /__\  \  |    /   |      \           
                |  |  |   | |  | | |   __   |  |    \   |  |\   \          
                \     /   | |  | | |  |  |  |  | |\  \  |  | \   \       
                 \___/    |_|  |_| |__|  |__|  |_| \__\ |__|  \__/        
                                                                              
                      - O R C A' S   B I G   F R I E N D -                    
                                      &                                       
                       - I N T E G R A L  F E E D E R -                       
                                                                              
 v1 FN, 2020, v2 2021, v3 2022-2024                                           
------------------------------------------------------------------------------


----------------------
SHARK INTEGRAL PACKAGE
----------------------

Number of atoms                             ...     10
Number of basis functions                   ...    140
Number of shells                            ...     60
Maximum angular momentum                    ...      2
Integral batch strategy                     ... SHARK/LIBINT Hybrid
RI-J (if used) integral strategy            ... SPLIT-RIJ (Revised 2003 algorithm where possible)
Printlevel                                  ...      1
Contraction scheme used                     ... SEGMENTED contraction
Prescreening option                         ... SCHWARTZ
   Thresh                                   ... 2.500e-11
   Tcut                                     ... 2.500e-12
   Tpresel                                  ... 2.500e-12 
Coulomb Range Separation                    ... NOT USED
Exchange Range Separation                   ... NOT USED
Multipole approximations                    ... NOT USED
Finite Nucleus Model                        ... NOT USED
CABS basis                                  ... NOT available
Auxiliary Coulomb fitting basis             ... AVAILABLE
   # of basis functions in Aux-J            ...    490
   # of shells in Aux-J                     ...    150
   Maximum angular momentum in Aux-J        ...      4
Auxiliary J/K fitting basis                 ... NOT available
Auxiliary Correlation fitting basis         ... NOT available
Auxiliary 'external' fitting basis          ... NOT available

Checking pre-screening integrals            ... done (  0.0 sec) Dimension = 60
   => SHARK Basis and OBASIS are compatible. Storing Pre-screening
Shell pair information
Shell pair cut-off parameter TPreSel        ...   2.5e-12
Total number of shell pairs                 ...      1830
Shell pairs after pre-screening             ...      1639
Total number of primitive shell pairs       ...      7390
Primitive shell pairs kept                  ...      4631
          la=0 lb=0:    391 shell pairs
          la=1 lb=0:    554 shell pairs
          la=1 lb=1:    204 shell pairs
          la=2 lb=0:    253 shell pairs
          la=2 lb=1:    188 shell pairs
          la=2 lb=2:     49 shell pairs

Checking whether 4 symmetric matrices of dimension 140 fit in memory
:Max Core in MB      =   4096.00
 MB in use           =      5.51
 MB left             =   4090.49
 MB needed           =      0.30
 Data fit in memory  = YES
Calculating RI/J V-Matrix + Cholesky decomp.... done (  0.0 sec)
Calculating Nuclear repulsion               ... done (  0.0 sec) ENN=    627.207757886809 Eh

Diagonalization of the overlap matrix:
Smallest eigenvalue                        ... 3.128e-03
Time for diagonalization                   ...    0.003 sec
Threshold for overlap eigenvalues          ... 1.000e-07
Number of eigenvalues below threshold      ... 0
Time for construction of square roots      ...    0.001 sec
Total time needed                          ...    0.006 sec

-------------------
DFT GRID GENERATION
-------------------

General Integration Accuracy     IntAcc      ... 4.388
Radial Grid Type                 RadialGrid  ... OptM3 with GC (2021)
Angular Grid (max. ang.)         AngularGrid ... 4 (Lebedev-302)
Angular grid pruning method      GridPruning ... 4 (adaptive)
Weight generation scheme         WeightScheme... mBecke (2022)
Basis function cutoff            BFCut       ... 1.0000e-11
Integration weight cutoff        WCut        ... 1.0000e-14
Partially contracted basis set               ... off
Rotationally invariant grid construction     ... off
Angular grids for H and He will be reduced by one unit

Total number of grid points                  ...    60928
Total number of batches                      ...      960
Average number of points per batch           ...       63
Average number of grid points per atom       ...     6093

--------------------
COSX GRID GENERATION
--------------------

GRIDX 1
-------
General Integration Accuracy     IntAcc      ... 3.816
Radial Grid Type                 RadialGrid  ... OptM3 with GC (2021)
Angular Grid (max. ang.)         AngularGrid ... 1 (Lebedev-50)
Angular grid pruning method      GridPruning ... 4 (adaptive)
Weight generation scheme         WeightScheme... mBecke (2022)
Basis function cutoff            BFCut       ... 1.0000e-11
Integration weight cutoff        WCut        ... 1.0000e-14
Partially contracted basis set               ... on
Rotationally invariant grid construction     ... off
Angular grids for H and He will be reduced by one unit

Total number of grid points                  ...     7668
Total number of batches                      ...       65
Average number of points per batch           ...      117
Average number of grid points per atom       ...      767
UseSFitting                                  ... on

GRIDX 2
-------
General Integration Accuracy     IntAcc      ... 4.020
Radial Grid Type                 RadialGrid  ... OptM3 with GC (2021)
Angular Grid (max. ang.)         AngularGrid ... 2 (Lebedev-110)
Angular grid pruning method      GridPruning ... 4 (adaptive)
Weight generation scheme         WeightScheme... mBecke (2022)
Basis function cutoff            BFCut       ... 1.0000e-11
Integration weight cutoff        WCut        ... 1.0000e-14
Partially contracted basis set               ... on
Rotationally invariant grid construction     ... off
Angular grids for H and He will be reduced by one unit

Total number of grid points                  ...    18426
Total number of batches                      ...      150
Average number of points per batch           ...      122
Average number of grid points per atom       ...     1843
UseSFitting                                  ... on

GRIDX 3
-------
General Integration Accuracy     IntAcc      ... 4.338
Radial Grid Type                 RadialGrid  ... OptM3 with GC (2021)
Angular Grid (max. ang.)         AngularGrid ... 3 (Lebedev-194)
Angular grid pruning method      GridPruning ... 4 (adaptive)
Weight generation scheme         WeightScheme... mBecke (2022)
Basis function cutoff            BFCut       ... 1.0000e-11
Integration weight cutoff        WCut        ... 1.0000e-14
Partially contracted basis set               ... on
Rotationally invariant grid construction     ... off
Angular grids for H and He will be reduced by one unit

Total number of grid points                  ...    40960
Total number of batches                      ...      326
Average number of points per batch           ...      125
Average number of grid points per atom       ...     4096
UseSFitting                                  ... on
Grids setup in   0.9 sec
Initializing property integral containers    ... done (  0.0 sec)

SHARK setup successfully completed in   1.0 seconds

Maximum memory used throughout the entire STARTUP-calculation: 17.0 MB


           ************************************************************
           *        Program running with 6 parallel MPI-processes     *
           *              working on a common directory               *
           ************************************************************
-------------------------------------------------------------------------------
                                 ORCA GUESS
                   Start orbitals & Density for SCF / CASSCF
-------------------------------------------------------------------------------

------------
SCF SETTINGS
------------
Hamiltonian:
 Density Functional     Method          .... DFT(GTOs)
 Exchange Functional    Exchange        .... B88
   X-Alpha parameter    XAlpha          ....  0.666667
   Becke's b parameter  XBeta           ....  0.004200
 Correlation Functional Correlation     .... LYP
 LDA part of GGA corr.  LDAOpt          .... VWN-5
 Gradients option       PostSCFGGA      .... off
 Hybrid DFT is turned on
   Fraction HF Exchange ScalHFX         ....  0.200000
   Scaling of DF-GGA-X  ScalDFX         ....  0.720000
   Scaling of DF-GGA-C  ScalDFC         ....  0.810000
   Scaling of DF-LDA-C  ScalLDAC        ....  1.000000
   Perturbative correction              ....  0.000000
   NL short-range parameter             ....  4.800000
 RI-approximation to the Coulomb term is turned on
   Number of AuxJ basis functions       .... 490
   RIJ-COSX (HFX calculated with COS-X)).... on


General Settings:
 Integral files         IntName         .... orca
 Hartree-Fock type      HFTyp           .... RHF
 Total Charge           Charge          ....    0
 Multiplicity           Mult            ....    1
 Number of Electrons    NEL             ....   80
 Basis Dimension        Dim             ....  140
 Nuclear Repulsion      ENuc            ....    627.2077578868 Eh

Convergence Acceleration:
 AO-DIIS                CNVDIIS         .... on
   Start iteration      DIISMaxIt       ....    12
   Startup error        DIISStart       ....  0.200000
   # of expansion vecs  DIISMaxEq       ....     5
   Bias factor          DIISBfac        ....   1.050
   Max. coefficient     DIISMaxC        ....  10.000
 MO-DIIS                CNVKDIIS        .... off
 Trust-Rad. Augm. Hess. CNVTRAH         .... auto
   Auto Start mean grad. ratio tolernc. ....  1.125000
   Auto Start start iteration           ....    50
   Auto Start num. interpolation iter.  ....    10
   Max. Number of Micro iterations      ....    24
   Max. Number of Macro iterations      .... Maxiter - #DIIS iter
   Number of Davidson start vectors     ....     2
   Converg. threshold    (grad. norm)   ....   1.000e-05
   Grad. Scal. Fac. for Micro threshold ....   0.100
   Minimum threshold for Micro iter.    ....   1.000e-02
   NR start threshold (gradient norm)   ....   1.000e-04
   Initial trust radius                 ....   0.400
   Minimum AH scaling param. (alpha)    ....   1.000
   Maximum AH scaling param. (alpha)    .... 1000.000
   Quad. conv. algorithm                .... NR
   White noise on init. David. guess    .... on
   Maximum white noise                  ....   0.010
   Pseudo random numbers                .... off
   Inactive MOs                         .... canonical
   Orbital update algorithm             .... Taylor
   Preconditioner                       .... Diag
   Full preconditioner red. dimension   ....   250
 SOSCF                 CNVSOSCF           .... on
   Start iteration     SOSCFMaxIt         ....   150
   Startup grad/error  SOSCFStart         ....  0.003300
   Hessian update      SOSCFHessUp        .... L-BFGS
   Autom. constraints  SOSCFAutoConstrain .... off
 Level Shifting         CNVShift        .... on
   Level shift para.    LevelShift      ....    0.2500
   Turn off err/grad.   ShiftErr        ....    0.0010
 Zerner damping         CNVZerner       .... off
 Static damping         CNVDamp         .... on
   Fraction old density DampFac         ....    0.7000
   Max. Damping (<1)    DampMax         ....    0.9800
   Min. Damping (>=0)   DampMin         ....    0.0000
   Turn off err/grad.   DampErr         ....    0.1000

SCF Procedure:
 Maximum # iterations   MaxIter         ....   125
 SCF integral mode      SCFMode         .... Direct
   Integral package                     .... SHARK and LIBINT hybrid scheme
 Reset frequency        DirectResetFreq ....    20
 Integral Threshold     Thresh          ....  2.500e-11 Eh
 Primitive CutOff       TCut            ....  2.500e-12 Eh

Convergence Tolerance:
 Convergence Check Mode ConvCheckMode   .... Total+1el-Energy
 Convergence forced     ConvForced      .... 0
 Energy Change          TolE            ....  1.000e-08 Eh
 1-El. energy change                    ....  1.000e-05 Eh
 Orbital Gradient       TolG            ....  1.000e-05
 Orbital Rotation angle TolX            ....  1.000e-05
 DIIS Error             TolErr          ....  5.000e-07

------------------------------
INITIAL GUESS: MODEL POTENTIAL
------------------------------
Loading Hartree-Fock densities                     ... done
Calculating cut-offs                               ... done
Initializing the effective Hamiltonian             ... done
Setting up the integral package (SHARK)            ... done
Starting the Coulomb interaction                   ... done (   0.0 sec)
Making the grid                                    ... done (   0.1 sec)
Mapping shells                                     ... done
Starting the XC term evaluation                    ... done (   0.0 sec)
  promolecular density results
     # of electrons  =     79.999664156
     EX              =    -83.970178666
     EC              =     -3.006118470
     EX+EC           =    -86.976297136
Transforming the Hamiltonian                       ... done (   0.0 sec)
Diagonalizing the Hamiltonian                      ... done (   0.0 sec)
Back transforming the eigenvectors                 ... done (   0.0 sec)
Now organizing SCF variables                       ... done
                      ------------------
                      INITIAL GUESS DONE (   0.2 sec)
                      ------------------
             **** ENERGY FILE WAS UPDATED (orca.en.tmp) ****
Finished Guess after   0.3 sec
Maximum memory used throughout the entire GUESS-calculation: 8.2 MB


           ************************************************************
           *        Program running with 6 parallel MPI-processes     *
           *              working on a common directory               *
           ************************************************************

-------------------------------------------------------------------------------------------
                                      ORCA LEAN-SCF
                              memory conserving SCF solver
-------------------------------------------------------------------------------------------

----------------------------------------D-I-I-S--------------------------------------------
Iteration    Energy (Eh)           Delta-E    RMSDP     MaxDP     DIISErr   Damp  Time(sec)
-------------------------------------------------------------------------------------------
               ***  Starting incremental Fock matrix formation  ***
    1    -787.4356148641594473     0.00e+00  1.08e-02  1.09e-01  2.99e-01  0.700   0.8
    2    -787.5573866466817208    -1.22e-01  5.56e-03  5.96e-02  8.69e-02  0.700   0.5
                               ***Turning on AO-DIIS***
    3    -787.5898355257949106    -3.24e-02  1.50e-03  2.00e-02  2.36e-02  0.700   0.4
    4    -787.6148772611282993    -2.50e-02  2.39e-03  3.30e-02  1.94e-02  0.000   0.4
    5    -787.6747736027340352    -5.99e-02  6.11e-04  6.68e-03  3.95e-03  0.000   0.4
                              *** Initializing SOSCF ***
---------------------------------------S-O-S-C-F--------------------------------------
Iteration    Energy (Eh)           Delta-E    RMSDP     MaxDP     MaxGrad    Time(sec)
--------------------------------------------------------------------------------------
    6    -787.6748653763721677    -9.18e-05  1.39e-04  1.03e-03  1.05e-03     0.4
               *** Restarting incremental Fock matrix formation ***
    7    -787.6748716810260476    -6.30e-06  9.44e-05  9.60e-04  2.30e-04     0.8
    8    -787.6748711544383923     5.27e-07  4.87e-05  3.27e-04  2.08e-04     0.6
    9    -787.6748730343261968    -1.88e-06  9.86e-06  1.41e-04  2.95e-05     0.5
   10    -787.6748730376604044    -3.33e-09  4.76e-06  6.13e-05  3.35e-05     0.5
                 **** Energy Check signals convergence ****

               *****************************************************
               *                     SUCCESS                       *
               *           SCF CONVERGED AFTER  10 CYCLES          *
               *****************************************************

Recomputing exchange energy using gridx3       ... done (    1.227 sec)
Old exchange energy                            :    -16.808648394 Eh
New exchange energy                            :    -16.808695941 Eh
Exchange energy change after final integration :     -0.000047547 Eh
Total energy after final integration           :   -787.674920601 Eh
             **** ENERGY FILE WAS UPDATED (orca.en.tmp) ****

----------------
TOTAL SCF ENERGY
----------------

Total Energy       :       -787.67492060071561 Eh          -21433.72426 eV

Components:
Nuclear Repulsion  :        627.20775788680874 Eh           17067.19077 eV
Electronic Energy  :      -1414.88263094086278 Eh          -38500.91374 eV
One Electron Energy:      -2339.18283497651782 Eh          -63652.40097 eV
Two Electron Energy:        924.30020403565504 Eh           25151.48723 eV

Virial components:
Potential Energy   :      -1570.97239690892775 Eh          -42748.33220 eV
Kinetic Energy     :        783.29747630821203 Eh           21314.60794 eV
Virial Ratio       :          2.00558848256876

DFT components:
N(Alpha)           :       39.999996375001 electrons
N(Beta)            :       39.999996375001 electrons
N(Total)           :       79.999992750002 electrons
E(X)               :      -66.996173336551 Eh       
E(C)               :       -3.514828944491 Eh       
E(XC)              :      -70.511002281041 Eh       

---------------
SCF CONVERGENCE
---------------

  Last Energy change         ...    3.3342e-09  Tolerance :   1.0000e-08
  Last MAX-Density change    ...    6.1312e-05  Tolerance :   1.0000e-07
  Last RMS-Density change    ...    4.7588e-06  Tolerance :   5.0000e-09
  Last DIIS Error            ...    1.0465e-03  Tolerance :   5.0000e-07
  Last Orbital Gradient      ...    3.3508e-05  Tolerance :   1.0000e-05
  Last Orbital Rotation      ...    2.0782e-05  Tolerance :   1.0000e-05


----------------
ORBITAL ENERGIES
----------------

  NO   OCC          E(Eh)            E(eV) 
   0   2.0000     -24.751875      -673.5328 
   1   2.0000     -24.751805      -673.5309 
   2   2.0000     -24.750414      -673.4930 
   3   2.0000     -24.750300      -673.4899 
   4   2.0000     -24.750244      -673.4884 
   5   2.0000     -24.750190      -673.4869 
   6   2.0000     -19.208694      -522.6951 
   7   2.0000     -10.467185      -284.8266 
   8   2.0000     -10.467167      -284.8261 
   9   2.0000     -10.344470      -281.4873 
  10   2.0000      -1.336607       -36.3709 
  11   2.0000      -1.331418       -36.2297 
  12   2.0000      -1.243680       -33.8423 
  13   2.0000      -1.241804       -33.7912 
  14   2.0000      -1.240602       -33.7585 
  15   2.0000      -1.239120       -33.7182 
  16   2.0000      -1.116144       -30.3718 
  17   2.0000      -0.797560       -21.7027 
  18   2.0000      -0.737186       -20.0598 
  19   2.0000      -0.677652       -18.4399 
  20   2.0000      -0.643189       -17.5020 
  21   2.0000      -0.629730       -17.1358 
  22   2.0000      -0.626369       -17.0444 
  23   2.0000      -0.623148       -16.9567 
  24   2.0000      -0.615581       -16.7508 
  25   2.0000      -0.526260       -14.3203 
  26   2.0000      -0.505647       -13.7594 
  27   2.0000      -0.502154       -13.6643 
  28   2.0000      -0.500624       -13.6227 
  29   2.0000      -0.495731       -13.4895 
  30   2.0000      -0.481685       -13.1073 
  31   2.0000      -0.469614       -12.7789 
  32   2.0000      -0.464301       -12.6343 
  33   2.0000      -0.458051       -12.4642 
  34   2.0000      -0.454352       -12.3635 
  35   2.0000      -0.446029       -12.1371 
  36   2.0000      -0.441641       -12.0177 
  37   2.0000      -0.440283       -11.9807 
  38   2.0000      -0.439587       -11.9618 
  39   2.0000      -0.323104        -8.7921 
  40   0.0000      -0.105427        -2.8688 
  41   0.0000       0.083287         2.2663 
  42   0.0000       0.132110         3.5949 
  43   0.0000       0.144158         3.9227 
  44   0.0000       0.159960         4.3527 
  45   0.0000       0.181694         4.9441 
  46   0.0000       0.186553         5.0764 
  47   0.0000       0.216222         5.8837 
  48   0.0000       0.272209         7.4072 
  49   0.0000       0.296571         8.0701 
  50   0.0000       0.350744         9.5442 
*Only the first 10 virtual orbitals were printed.

                    ********************************
                    * MULLIKEN POPULATION ANALYSIS *
                    ********************************

-----------------------
MULLIKEN ATOMIC CHARGES
-----------------------
   0 C :    0.532092
   1 O :   -0.104124
   2 C :   -0.077274
   3 F :   -0.134092
   4 F :   -0.153284
   5 C :    0.532048
   6 F :   -0.154020
   7 F :   -0.134038
   8 F :   -0.153984
   9 F :   -0.153325
Sum of atomic charges:    0.0000000

--------------------------------
MULLIKEN REDUCED ORBITAL CHARGES
--------------------------------
  0 C s       :     2.938090  s :     2.938090
      pz      :     0.705615  p :     2.345572
      px      :     0.873609
      py      :     0.766348
      dz2     :     0.041040  d :     0.184246
      dxz     :     0.027951
      dyz     :     0.048397
      dx2y2   :     0.027382
      dxy     :     0.039476

  1 O s       :     3.756721  s :     3.756721
      pz      :     1.214824  p :     4.327071
      px      :     1.787566
      py      :     1.324680
      dz2     :     0.002464  d :     0.020332
      dxz     :     0.000194
      dyz     :     0.006765
      dx2y2   :     0.006534
      dxy     :     0.004374

  2 C s       :     3.220018  s :     3.220018
      pz      :     0.808971  p :     2.767386
      px      :     1.020036
      py      :     0.938379
      dz2     :     0.006210  d :     0.089870
      dxz     :     0.003722
      dyz     :     0.015695
      dx2y2   :     0.018265
      dxy     :     0.045979

  3 F s       :     3.888544  s :     3.888544
      pz      :     1.877147  p :     5.236660
      px      :     1.628029
      py      :     1.731483
      dz2     :     0.001224  d :     0.008888
      dxz     :     0.001277
      dyz     :     0.000869
      dx2y2   :     0.002020
      dxy     :     0.003498

  4 F s       :     3.894309  s :     3.894309
      pz      :     1.636220  p :     5.250452
      px      :     1.900314
      py      :     1.713918
      dz2     :     0.001997  d :     0.008523
      dxz     :     0.001138
      dyz     :     0.003505
      dx2y2   :     0.001034
      dxy     :     0.000849

  5 C s       :     2.938087  s :     2.938087
      pz      :     0.707212  p :     2.345573
      px      :     0.876879
      py      :     0.761483
      dz2     :     0.045386  d :     0.184291
      dxz     :     0.031037
      dyz     :     0.039780
      dx2y2   :     0.032151
      dxy     :     0.035938

  6 F s       :     3.896285  s :     3.896285
      pz      :     1.596179  p :     5.249219
      px      :     1.885072
      py      :     1.767968
      dz2     :     0.002521  d :     0.008516
      dxz     :     0.001442
      dyz     :     0.003100
      dx2y2   :     0.000692
      dxy     :     0.000761

  7 F s       :     3.888533  s :     3.888533
      pz      :     1.819736  p :     5.236619
      px      :     1.634876
      py      :     1.782007
      dz2     :     0.001117  d :     0.008887
      dxz     :     0.002052
      dyz     :     0.001135
      dx2y2   :     0.001871
      dxy     :     0.002712

  8 F s       :     3.896290  s :     3.896290
      pz      :     1.483160  p :     5.249171
      px      :     1.884588
      py      :     1.881423
      dz2     :     0.004273  d :     0.008523
      dxz     :     0.002014
      dyz     :     0.001869
      dx2y2   :     0.000163
      dxy     :     0.000204

  9 F s       :     3.894331  s :     3.894331
      pz      :     1.802191  p :     5.250471
      px      :     1.901502
      py      :     1.546779
      dz2     :     0.001075  d :     0.008524
      dxz     :     0.000413
      dyz     :     0.002951
      dx2y2   :     0.002530
      dxy     :     0.001553



                     *******************************
                     * LOEWDIN POPULATION ANALYSIS *
                     *******************************

----------------------
LOEWDIN ATOMIC CHARGES
----------------------
   0 C :    0.132009
   1 O :   -0.033541
   2 C :   -0.000529
   3 F :   -0.025981
   4 F :   -0.045840
   5 C :    0.131880
   6 F :   -0.043184
   7 F :   -0.025986
   8 F :   -0.042958
   9 F :   -0.045869

-------------------------------
LOEWDIN REDUCED ORBITAL CHARGES
-------------------------------
  0 C s       :     2.861349  s :     2.861349
      pz      :     0.806346  p :     2.618709
      px      :     0.953680
      py      :     0.858682
      dz2     :     0.087752  d :     0.387934
      dxz     :     0.051367
      dyz     :     0.105659
      dx2y2   :     0.053520
      dxy     :     0.089636

  1 O s       :     3.543596  s :     3.543596
      pz      :     1.217184  p :     4.455374
      px      :     1.774871
      py      :     1.463318
      dz2     :     0.004515  d :     0.034571
      dxz     :     0.000323
      dyz     :     0.009101
      dx2y2   :     0.013274
      dxy     :     0.007358

  2 C s       :     2.929021  s :     2.929021
      pz      :     0.790874  p :     2.862501
      px      :     1.035634
      py      :     1.035993
      dz2     :     0.014299  d :     0.209008
      dxz     :     0.008049
      dyz     :     0.028748
      dx2y2   :     0.046790
      dxy     :     0.111121

  3 F s       :     3.722985  s :     3.722985
      pz      :     1.874545  p :     5.288852
      px      :     1.660848
      py      :     1.753459
      dz2     :     0.002163  d :     0.014144
      dxz     :     0.001664
      dyz     :     0.001181
      dx2y2   :     0.002777
      dxy     :     0.006359

  4 F s       :     3.731790  s :     3.731790
      pz      :     1.670267  p :     5.300489
      px      :     1.893937
      py      :     1.736285
      dz2     :     0.002850  d :     0.013562
      dxz     :     0.001530
      dyz     :     0.006409
      dx2y2   :     0.001658
      dxy     :     0.001115

  5 C s       :     2.861264  s :     2.861264
      pz      :     0.808181  p :     2.618812
      px      :     0.956899
      py      :     0.853731
      dz2     :     0.099352  d :     0.388045
      dxz     :     0.059880
      dyz     :     0.082251
      dx2y2   :     0.066815
      dxy     :     0.079747

  6 F s       :     3.732588  s :     3.732588
      pz      :     1.636473  p :     5.297045
      px      :     1.879236
      py      :     1.781336
      dz2     :     0.003919  d :     0.013551
      dxz     :     0.002105
      dyz     :     0.005506
      dx2y2   :     0.000941
      dxy     :     0.001081

  7 F s       :     3.722995  s :     3.722995
      pz      :     1.826686  p :     5.288849
      px      :     1.666645
      py      :     1.795518
      dz2     :     0.001590  d :     0.014141
      dxz     :     0.003333
      dyz     :     0.001826
      dx2y2   :     0.002689
      dxy     :     0.004703

  8 F s       :     3.732472  s :     3.732472
      pz      :     1.539041  p :     5.296923
      px      :     1.878607
      py      :     1.879274
      dz2     :     0.007650  d :     0.013563
      dxz     :     0.002951
      dyz     :     0.002509
      dx2y2   :     0.000185
      dxy     :     0.000268

  9 F s       :     3.731761  s :     3.731761
      pz      :     1.813486  p :     5.300544
      px      :     1.894843
      py      :     1.592216
      dz2     :     0.001442  d :     0.013563
      dxz     :     0.000561
      dyz     :     0.004991
      dx2y2   :     0.004522
      dxy     :     0.002047



                      *****************************
                      * MAYER POPULATION ANALYSIS *
                      *****************************

  NA   - Mulliken gross atomic population
  ZA   - Total nuclear charge
  QA   - Mulliken gross atomic charge
  VA   - Mayer's total valence
  BVA  - Mayer's bonded valence
  FA   - Mayer's free valence

  ATOM       NA         ZA         QA         VA         BVA        FA
  0 C      5.4679     6.0000     0.5321     4.3724     4.3724    -0.0000
  1 O      8.1041     8.0000    -0.1041     2.3365     2.3365     0.0000
  2 C      6.0773     6.0000    -0.0773     3.9704     3.9704     0.0000
  3 F      9.1341     9.0000    -0.1341     1.2328     1.2328     0.0000
  4 F      9.1533     9.0000    -0.1533     1.2019     1.2019    -0.0000
  5 C      5.4680     6.0000     0.5320     4.3722     4.3722    -0.0000
  6 F      9.1540     9.0000    -0.1540     1.1995     1.1995     0.0000
  7 F      9.1340     9.0000    -0.1340     1.2329     1.2329     0.0000
  8 F      9.1540     9.0000    -0.1540     1.1996     1.1996     0.0000
  9 F      9.1533     9.0000    -0.1533     1.2017     1.2017    -0.0000

  Mayer bond orders larger than 0.100000
B(  0-C ,  2-C ) :   0.8436 B(  0-C ,  3-F ) :   1.1837 B(  0-C ,  4-F ) :   1.1438 
B(  0-C ,  6-F ) :   1.1466 B(  1-O ,  2-C ) :   2.2287 B(  2-C ,  5-C ) :   0.8438 
B(  5-C ,  7-F ) :   1.1838 B(  5-C ,  8-F ) :   1.1463 B(  5-C ,  9-F ) :   1.1436 


-------
TIMINGS
-------

Total SCF time: 0 days 0 hours 0 min 7 sec 

Total time                  ....       7.427 sec
Sum of individual times     ....       6.857 sec  ( 92.3%)

SCF preparation             ....       0.181 sec  (  2.4%)
Fock matrix formation       ....       6.452 sec  ( 86.9%)
  Startup                   ....       0.005 sec  (  0.1% of F)
  Split-RI-J                ....       0.617 sec  (  9.6% of F)
  Chain of spheres X        ....       5.124 sec  ( 79.4% of F)
  XC integration            ....       1.112 sec  ( 17.2% of F)
    XC Preparation          ....       0.000 sec  (  0.0% of XC)
    Basis function eval.    ....       0.351 sec  ( 31.5% of XC)
    Density eval.           ....       0.216 sec  ( 19.5% of XC)
    XC-Functional eval.     ....       0.076 sec  (  6.9% of XC)
    XC-Potential eval.      ....       0.238 sec  ( 21.4% of XC)
Diagonalization             ....       0.000 sec  (  0.0%)
Density matrix formation    ....       0.027 sec  (  0.4%)
Total Energy calculation    ....       0.015 sec  (  0.2%)
Population analysis         ....       0.017 sec  (  0.2%)
Orbital Transformation      ....       0.020 sec  (  0.3%)
Orbital Orthonormalization  ....       0.000 sec  (  0.0%)
DIIS solution               ....       0.097 sec  (  1.3%)
SOSCF solution              ....       0.048 sec  (  0.6%)
Finished LeanSCF after   7.4 sec

Maximum memory used throughout the entire LEANSCF-calculation: 10.9 MB


-------------------------------------------------------------------------------
                          DFT DISPERSION CORRECTION                            
                                                                               
                              DFTD3 V3.1  Rev 1                                
                          USING Becke-Johnson damping                          
-------------------------------------------------------------------------------
The B3LYP functional is recognized
Active option DFTDOPT                   ...         4   

molecular C6(AA) [au] = 1076.581611 


            DFT-D V3
 parameters
 s6 scaling factor         :     1.0000 
 a1 scaling factor         :     0.3981 
 s8 scaling factor         :     1.9889 
 a2 scaling factor         :     4.4211 
 ad hoc parameters k1-k3   :    16.0000     1.3333    -4.0000 

 Edisp/kcal,au: -7.845335126606  -0.012502336003 
 E6   /kcal   :  -3.692406701 
 E8   /kcal   :  -4.152928426 
 % E8         :  52.935003528 

-------------------------   ----------------
Dispersion correction           -0.012502336
-------------------------   ----------------


-------------------------   --------------------
FINAL SINGLE POINT ENERGY      -787.687422936718
-------------------------   --------------------



           ************************************************************
           *        Program running with 6 parallel MPI-processes     *
           *              working on a common directory               *
           ************************************************************
------------------------------------------------------------------------------
                         ORCA SCF GRADIENT CALCULATION
------------------------------------------------------------------------------

Nuc. rep. gradient        (SHARK) ... done (  0.0 sec)
HCore & Overlap gradient  (SHARK) ... done (  0.0 sec)
Split-RIJ-J gradient      (SHARK) ... done (  0.3 sec)
done (  3.9 sec)
XC gradient                       ... done (  0.6 sec)
Dispersion correction             ... done (  0.0 sec)

-------------------
DISPERSION GRADIENT
-------------------

   1   C   :    0.000338108   -0.000002054    0.000002524
   2   O   :    0.000004636    0.000469526    0.000096456
   3   C   :    0.000000314    0.000042703    0.000008414
   4   F   :    0.000249024    0.000037789   -0.000034625
   5   F   :    0.000271060   -0.000161069   -0.000166947
   6   C   :   -0.000338108    0.000005442   -0.000001625
   7   F   :    0.000286494   -0.000141028    0.000141589
   8   F   :   -0.000248573    0.000025459    0.000047801
   9   F   :   -0.000287786   -0.000067930   -0.000184461
  10   F   :   -0.000275170   -0.000208838    0.000090873

Difference to translation invariance:
           :    0.0000000000    0.0000000000    0.0000000000

Difference to rotation invariance:
           :   -0.0000000000    0.0000000000    0.0000000000

Norm of the Dispersion gradient    ...    0.0010431039
RMS gradient                       ...    0.0001904438
MAX gradient                       ...    0.0004695258

------------------
CARTESIAN GRADIENT
------------------

   1   C   :   -0.000188183    0.000192087    0.000038761
   2   O   :   -0.000039793    0.000120763   -0.000052053
   3   C   :    0.000059928   -0.000097915   -0.000024165
   4   F   :    0.000324773   -0.000166614   -0.000016629
   5   F   :    0.000060915    0.000137717   -0.000017681
   6   C   :    0.000155944    0.000137565   -0.000162255
   7   F   :    0.000175029   -0.000231799    0.000017823
   8   F   :   -0.000428334   -0.000156822    0.000081972
   9   F   :    0.000030649   -0.000071265    0.000071567
  10   F   :   -0.000150928    0.000136284    0.000062660

Difference to translation invariance:
           :   -0.0000000000    0.0000000000    0.0000000001

Difference to rotation invariance:
           :    0.0001288640   -0.0003299756   -0.0002614846

Norm of the Cartesian gradient     ...    0.0008297051
RMS gradient                       ...    0.0001514827
MAX gradient                       ...    0.0004283341

-------
TIMINGS
-------

Total SCF gradient time     ....        4.899 sec

Densities                   ....       0.001 sec  (  0.0%)
One electron gradient       ....       0.030 sec  (  0.6%)
RI-J Coulomb gradient       ....       0.287 sec  (  5.8%)
COSX gradient               ....       3.930 sec  ( 80.2%)
XC gradient                 ....       0.602 sec  ( 12.3%)

Maximum memory used throughout the entire SCFGRAD-calculation: 28.1 MB


           ************************************************************
           *        Program running with 6 parallel MPI-processes     *
           *              working on a common directory               *
           ************************************************************

------------------------------------------------------------------------------
                              ORCA PROPERTY CALCULATIONS
------------------------------------------------------------------------------

GBWName                                 ... orca.gbw
Number of atoms                         ...     10
Number of basis functions               ...    140
Max core memory                         ...   4096 MB

Electric properties:
Dipole moment                           ... YES
Quadrupole moment                       ...  NO
Static polarizability (Dipole/Dipole)   ...  NO
Static polarizability (Dipole/Quad.)    ...  NO
Static polarizability (Quad./Quad.)     ...  NO
Static polarizability (Velocity)        ...  NO
Static hyperpolarizability              ...  NO

Atomic electric properties:
Dipole moment                           ...  NO
Quadrupole moment                       ...  NO
Static polarizability                   ...  NO

Choice of electric origin               ... Center of mass
Position of electric origin             ...     0.001369    -0.017909    -0.022814

General magnetic properties:
Magnetizability                         ...  NO

EPR properties:
g-Tensor (aka g-matrix)                 ...  NO
Zero-Field splitting spin-orbit         ...  NO
Zero-field splitting spin-spin          ...  NO
Hyperfine couplings                     ...  NO (   0 nuclei)
Quadrupole couplings                    ...  NO (   0 nuclei)
Contact density                         ...  NO (   0 nuclei)

NMR properties:
Chemical shifts                         ...  NO (   0 nuclei)
Spin-rotation constants                 ...  NO (   0 nuclei)
Spin-spin couplings                     ...  NO (   0 nuclei,    0 pairs)

Choice of magnetic origin               ... GIAO
Position of magnetic origin             ...     0.000000     0.000000     0.000000

Properties with geometric perturbations:
SCF Hessian                             ...  NO
IR spectrum                             ...  NO
VCD spectrum                            ...  NO
X-ray spectroscopy properties:
SCF XES/XAS/RIXS spectra                ...  NO

SCF SOC stabilization energy            ...  NO
Diagonal Born-Oppenheimer correction    ...  NO

-------------
DIPOLE MOMENT
-------------

Method             : SCF
Type of density    : Electron Density
Multiplicity       :   1
Irrep              :   0
Energy             :  -787.6749206007156090 Eh
Basis              : AO
                                X                 Y                 Z
Electronic contribution:     -0.019558239      -1.982402575      -0.406573734
Nuclear contribution   :      0.017490495       1.827070584       0.376287946
                        -----------------------------------------
Total Dipole Moment    :     -0.002067744      -0.155331991      -0.030285787
                        -----------------------------------------
Magnitude (a.u.)       :      0.158270440
Magnitude (Debye)      :      0.402291487



--------------------
Rotational spectrum 
--------------------
 
Rotational constants in cm-1:             0.072451             0.034590             0.031167 
Rotational constants in MHz :          2172.024547          1036.968817           934.350980 

Dipole components along the rotational axes: 
x,y,z [a.u.] :    -0.000545    -0.158264     0.001371 
x,y,z [Debye]:    -0.001385    -0.402274     0.003485 

 

Dipole moment calculation done in   0.0 sec 

Maximum memory used throughout the entire PROP-calculation: 6.3 MB

--------------------------------
SUGGESTED CITATIONS FOR THIS RUN
--------------------------------

Below you find a list of papers that are relevant to this ORCA run
We neither can nor want to force you to cite these papers, but we appreciate if you do
You receive ORCA, which is the product of decades of hard work by many enthusiastic individuals, for free
The only thing we kindly ask in return is that you cite our papers,
We deeply appreciate it, if you show your appreciation for ORCA by not just citing the generic ORCA reference.

Please note that relegating all ORCA citations to the supporting information does *not* help us.
SI sections are not indexed - citations you put there will not count into any citation statistics
But we need these citations in order to attract the funding resources that allow us to do what we are doing

Therefore, if you are a happy ORCA user, please consider citing a few of the papers listed below in the main body of your paper

In addition to the list printed below, the program has created the file orca.bibtex that contains the list in bibtex format
You can import this file easily into all common literature databanks and citation aid programs


List of essential papers. We consider these as the minimum necessary citations

  1. Neese, F.
     Software update: the ORCA program system, version 6.0
     WIRES Comput. Molec. Sci. 2025 15(1), e70019
     doi.org/10.1002/wcms.7019

List of papers to cite with high priority. The work reported in these papers was absolutely
necessary for this run to complete.
Our perspective: the developers of density functionals and basis sets usually get cited in chemistry papers
Good! But without the algorithms to do something with them, the functionals or basis sets would not do anything.
Hence, in our opinion, the algorithm design and method developments papers are equally worthy of getting cited

  1. Neese, F.
     An improvement of the resolution of the identity approximation for the formation of the Coulomb matrix
     J. Comp. Chem. 2003 24(14), 1740-1747
     doi.org/10.1002/jcc.10318
  2. Neese, F.; Wennmohs, F.; Hansen, A.; Becker, U.
     Efficient, approximate and parallel Hartree-Fock and hybrid DFT calculations. A 'chain-of-spheres' algorithm for the Hartree-Fock exchange
     Chem. Phys. 2009 356(1-3), 98-109
     doi.org/10.1016/j.chemphys.2008.10.036
  3. Grimme, S.; Antony, J.; Ehrlich, S.; Krieg, H.
     A consistent and accurate ab initio parametrization of density functional dispersion correction (DFT-D) for the 94 elements H-Pu
     J. Chem. Phys. 2010 132 , 154104
     doi.org/10.1063/1.3382344
  4. Grimme, S.; Ehrlich, S.; Goerigk, L.
     Effect of the damping function in dispersion corrected density functional theory
     J. Comput. Chem. 2011 32(7), 1456-1465
     doi.org/10.1002/jcc.21759
  5. Helmich-Paris, B.; de Souza, B.; Neese, F.; Izsák, R.
     An improved chain of spheres for exchange algorithm
     J. Chem. Phys. 2021 155(10), 104109
     doi.org/10.1063/5.0058766
  6. Neese, F.
     The SHARK Integral Generation and Digestion System
     J. Comp. Chem. 2022 44(3), 381
     doi.org/10.1002/jcc.26942

List of suggested additional citations. These are papers that are important in the 'surrounding' of 
of this run, or papers that preceded the highly important papers. If you like your results we are grateful for a citation.

  1. Izsak, R.; Neese, F.
     An overlap fitted chain of spheres exchange method
     J. Chem. Phys. 2011 135 , 144105
     doi.org/10.1063/1.3646921
  2. Izsak, R.; Hansen, A.; Neese, F.
     The resolution of identity and chain of spheres approximations for the LPNO-CCSD singles Fock term
     Molec. Phys. 2012 110 , 2413-2417
     doi.org/10.1080/00268976.2012.687466
  3. Neese, F.
     The ORCA program system
     WIRES Comput. Molec. Sci. 2012 2(1), 73-78
     doi.org/10.1002/wcms.81
  4. Izsak, R.; Neese, F.; Klopper, W.
     Robust fitting techniques in the chain of spheres approximation to the Fock exchange: The role of the complementary space
     J. Chem. Phys. 2013 139 , 
     doi.org/10.1063/1.4819264
  5. Neese, F.
     Software update: the ORCA program system, version 4.0
     WIRES Comput. Molec. Sci. 2018 8(1), 1-6
     doi.org/10.1002/wcms.1327
  6. Neese, F.; Wennmohs, F.; Becker, U.; Riplinger, C.
     The ORCA quantum chemistry program package
     J. Chem. Phys. 2020 152(22), 224108
     doi.org/10.1063/5.0004608
  7. Neese, F.
     Software update: The ORCA program system—Version 5.0
     WIRES Comput. Molec. Sci. 2022 12(1), e1606
     doi.org/10.1002/wcms.1606

List of optional additional citations

  1. Neese, F.
     Approximate second-order SCF convergence for spin unrestricted wavefunctions
     Chem. Phys. Lett. 2000 325(1-3), 93-98
     doi.org/10.1016/s0009-2614(00)00662-x

Timings for individual modules:

Sum of individual times          ...       15.708 sec (=   0.262 min)
Startup calculation              ...        1.444 sec (=   0.024 min)   9.2 %
SCF iterations                   ...        8.444 sec (=   0.141 min)  53.8 %
Property calculations            ...        0.452 sec (=   0.008 min)   2.9 %
SCF Gradient evaluation          ...        5.369 sec (=   0.089 min)  34.2 %
                             ****ORCA TERMINATED NORMALLY****
TOTAL RUN TIME: 0 days 0 hours 0 minutes 16 seconds 258 msec
