
                                 *****************
                                 * O   R   C   A *
                                 *****************

                                            #,                                       
                                            ###                                      
                                            ####                                     
                                            #####                                    
                                            ######                                   
                                           ########,                                 
                                     ,,################,,,,,                         
                               ,,#################################,,                 
                          ,,##########################################,,             
                       ,#########################################, ''#####,          
                    ,#############################################,,   '####,        
                  ,##################################################,,,,####,       
                ,###########''''           ''''###############################       
              ,#####''   ,,,,##########,,,,          '''####'''          '####       
            ,##' ,,,,###########################,,,                        '##       
           ' ,,###''''                  '''############,,,                           
         ,,##''                                '''############,,,,        ,,,,,,###''
      ,#''                                            '''#######################'''  
     '                                                          ''''####''''         
             ,#######,   #######,   ,#######,      ##                                
            ,#'     '#,  ##    ##  ,#'     '#,    #''#        ,####,    ,#,          
            ##       ##  ##   ,#'  ##            #'  '#       #'       ,# #          
            ##       ##  #######   ##           ,######,      #####,      #          
            '#,     ,#'  ##    ##  '#,     ,#' ,#      #,     #,   #      #          
             '#######'   ##     ##  '#######'  #'      '#     '####' #    #          



                #########################################################
                #                        -***-                          #
                #          Department of theory and spectroscopy        #
                #                                                       #
                #                      Frank Neese                      #
                #                                                       #
                #     Directorship, Architecture, Infrastructure        #
                #                    SHARK, DRIVERS                     #
                #        Core code/Algorithms in most modules           #
                #                                                       #
                #        Max Planck Institute fuer Kohlenforschung      #
                #                Kaiser Wilhelm Platz 1                 #
                #                 D-45470 Muelheim/Ruhr                 #
                #                      Germany                          #
                #                                                       #
                #                  All rights reserved                  #
                #                        -***-                          #
                #########################################################


                         Program Version 6.1.0  -  RELEASE   -
                                (GIT: $679e74b$)
                          ($2025-06-10 18:02:51 +0200$)


 With contributions from (in alphabetic order):
[Max-Planck-Institut fuer Kohlenforschung]                               
  Daniel Aravena         : Magnetic Suceptibility                        
  Michael Atanasov       : Ab Initio Ligand Field Theory (pilot matlab implementation)
  Alexander A. Auer      : GIAO ZORA, VPT2 properties, NMR spectrum      
  Ute Becker             : All parallelization in ORCA, NUMFREQ, NUMCALC 
  Giovanni Bistoni       : ED, misc. LED, open-shell LED, HFLD           
  Dmytro Bykov           : pre 5.0 version of the SCF Hessian            
  Marcos Casanova-Páez   : Triplet and SCS-CIS(D). UHF-(DLPNO)-IP/EA/STEOM-CCSD. UHF-CVS-IP/STEOM-CCSD   
  Vijay G. Chilkuri      : MRCI spin determinant printing, contributions to CSF-ICE 
  Pauline Colinet        : FMM embedding                                 
  Dipayan Datta          : RHF DLPNO-CCSD density                        
  Achintya Kumar Dutta   : EOM-CC, STEOM-CC                              
  Nicolas Foglia         : Exact transition moments, OPA infrastructure, MCD improvements    
  Dmitry Ganyushin       : Spin-Orbit,Spin-Spin,Magnetic field MRCI      
  Miquel Garcia-Rates    : C-PCM and meta-GGA Hessian, CCSD/C-PCM, Gaussian charge scheme 
  Tiago L. C. Gouveia    : GS-ROHF, GS-ROCIS                             
  Yang Guo               : DLPNO-NEVPT2, F12-NEVPT2, CIM, IAO-localization        
  Andreas Hansen         : Spin unrestricted coupled pair/coupled cluster methods 
  Ingolf Harden          : AUTO-CI MPn and infrastructure                
  Benjamin Helmich-Paris : MC-RPA, TRAH-(SCF,CASSCF), AVAS, COSX integrals, SCF dyn. polar., MC-PDFT, srDFT 
  Lee Huntington         : MR-EOM, pCC                                   
  Robert Izsak           : Overlap fitted RIJCOSX, COSX-SCS-MP3, EOM     
  Riya Kayal             : Wick's Theorem for AUTO-CI, AUTO-CI UHF-CCSDT 
  Emily Kempfer          : AUTO-CI RHF CISDT and CCSDT, approximate NEVPT4
  Christian Kollmar      : KDIIS, OOCD, Brueckner-CCSD(T), CCSD density, CASPT2, CASPT2-K, improved NEVPT2 
  Axel Koslowski         : Symmetry handling                             
  Simone Kossmann        : meta-GGA functionals, TD-DFT gradient, OOMP2, (MP2 Hessian; deprecated post 5.0) 
  Lucas Lang             : DCDCAS, Hyperfine gauge corrections, ICE-SOC+SSC
  Marvin Lechner         : AUTO-CI (C++ implementation), FIC-MRCC        
  Spencer Leger          : CASSCF response                               
  Dagmar Lenk            : GEPOL surface, SMD, ORCA-2-JSON               
  Dimitrios Liakos       : Extrapolation schemes; Compound Job, Property file
  Dimitrios Manganas     : Further ROCIS development; embedding schemes. LFT, Crystal Embedding 
  Dimitrios Pantazis     : SARC Basis sets                               
  Anastasios Papadopoulos: AUTO-CI, single reference methods and gradients 
  Taras Petrenko         : pre 6.0 DFT Hessian and TD-DFT gradient,  ECA, NRVS 
  Petra Pikulova         : Analytic Raman intensities                    
  Peter Pinski           : DLPNO-MP2, DLPNO-MP2 Gradient                 
  Shashank Vittal Rao    : ES-AILFT, MagRelax                            
  Christoph Reimann      : Effective Core Potentials                     
  Marius Retegan         : Local ZFS, SOC                                
  Christoph Riplinger    : Optimizer, TS searches, QM/MM, DLPNO-CCSD(T), (RO)-DLPNO pert. Triples 
  Michael Roemelt        : Original ROCIS implementation, recursive CI coupling coefficients
  Masaaki Saitow         : Open-shell DLPNO-CCSD energy and density      
  Barbara Sandhoefer     : DKH picture change effects                    
  Yorick L. A. Schmerwitz: GMF and freeze-and-release deltaSCF, NEB S-IDPP initial path                    
  Kantharuban Sivalingam : CASSCF convergence/infrastructure, NEVPT2, NEVPT3, NEVPT4(SD), FIC-MRCI and CEPA variants
  Bernardo de Souza      : ESD, SOC TD-DFT                               
  Georgi L. Stoychev     : AutoAux, RI-MP2 NMR, DLPNO-MP2 response, X2C  
  Van Anh Tran           : RI-MP2 g-tensors                              
  Willem Van den Heuvel  : Paramagnetic NMR                              
  Zikuan Wang            : NOTCH, Electric field optimization            
  Frank Wennmohs         : Technical directorship and infrastructure     
  Hang Xu                : AUTO-CI-Response properties                   
                                                                         
[FACCTs GmbH]                                                            
  Markus Bursch, Nicolas Foglia, Miquel Garcia-Rates, Ingolf Harden, Hagen Neugebauer, Anastasios Papadopoulos, 
  Christoph Riplinger, Bernardo de Souza, Georgi L. Stoychev                                                    
                                                                 
  APM, various basis sets, CI-OPT, improved COSX, DLPNO-Multilevel,           
  DOCKER, DRACO, updates on ESD, Fragmentator, GOAT, IRC, LR-CPCM, L-BFGS, MBIS, meta-GGA TD-DFT gradient, ML-optimized integration grids, 
  MM, NACMEs, nearIR, NEB, NEB-TS, NL-DFT gradient (VV10), 2- and 3-layer-ONIOM, interface openCOSMO-RS, QMMM,   
  Crystal-QMMM, RESP, rigid body optimization, SF, symmetry and pop. for TD-DFT, various functionals, SOLVATOR                                   
                                                                         
[Other institutions]                                                     
  V. Asgeirsson          : NEB                                           
  Christoph Bannwarth    : sTDA-DFT, sTD-DFT, PBEh-3c, B97-3c, D3        
  Giovanni Bistoni       : ETS/NOCV, ADLD/ADEX, COVALED                  
  Martin Brehm           : Molecular dynamics                            
  Ronald Cardenas        : ETS/NOCV                                      
  Martina Colucci        : COVALED                                       
  Sebastian Ehlert       : rSCAN, r2SCAN, r2SCAN-3c, D4, dhf basis sets  
  Marvin Friede          : D4 for Fr, Ra, Ac-Lr                          
  Lars Goerigk           : TD-DFT with DH, B97 family of functionals     
  Stefan Grimme          : VdW corrections, initial TS optimization, DFT functionals, gCP, sTDA/sTD-DF 
  Waldemar Hujo          : DFT-NL                                        
  H. Jonsson             : NEB                                           
  Holger Kruse           : gCP                                           
  Marcel Mueller         : wB97X-3c, vDZP basis set                      
  Hagen Neugebauer       : wr2SCAN, Native XTB                           
  Gianluca Regni         : ADLD/ADEX                                     
  Tobias Risthaus        : pre 6.0 range-separated hybrid DFT and stability analysis
  Lukas Wittmann         : regularized MP2, r2SCAN double-hybrids, wr2SCAN        
                                                                         
We gratefully acknowledge several colleagues who have allowed us to      
interface, adapt or use parts of their codes:                            
  Ed Valeev, F. Pavosevic, A. Kumar             : LibInt (2-el integral package), F12 methods 
  Garnet Chan, S. Sharma, J. Yang, R. Olivares  : DMRG                   
  Ulf Ekstrom                                   : XCFun DFT Library      
  Mihaly Kallay                                 : mrcc  (arbitrary order and MRCC methods)
  Frank Weinhold                                : gennbo (NPA and NBO analysis)           
  Simon Mueller                                 : openCOSMO-RS                            
  Christopher J. Cramer and Donald G. Truhlar   : smd solvation model                     
  S Lehtola, MJT Oliveira, MAL Marques          : LibXC Library                           
  Liviu Ungur et al                             : ANISO software                          


 Your calculation uses the libint2 library for the computation of 2-el integrals
 For citations please refer to: http://libint.valeyev.net

 Your ORCA version has been built with support for libXC version: 7.0.0
 For citations please refer to: https://libxc.gitlab.io

 This ORCA versions uses:
   CBLAS   interface :  Fast vector & matrix operations
   LAPACKE interface :  Fast linear algebra routines
   SCALAPACK package :  Parallel linear algebra routines
   Shared memory     :  Shared parallel matrices
   BLAS/LAPACK       :  OpenBLAS 0.3.29  USE64BITINT DYNAMIC_ARCH NO_AFFINITY Zen SINGLE_THREADED
        Core in use  :  Zen
   Copyright (c) 2011-2014, The OpenBLAS Project


  ***********************************
  * Starting time: Wed Sep 10 13:36:07 2025
  * Host name:     wyk-Server
  * Process ID:    2297383
  * Working dir.:  /home/wyk/Documents/code/openQDC/MGMR/singlepointcalc/68/sp
  ***********************************

Your calculation utilizes the atom-pairwise dispersion correction
with the Becke-Johnson damping scheme (D3BJ)


Warning: RI is on but no J-basis has been assigned. Assigning Def2/J (nothing to worry about!)
================================================================================

----- Orbital basis set information -----
Your calculation utilizes the basis: def2-SVP
   F. Weigend and R. Ahlrichs, Phys. Chem. Chem. Phys. 7, 3297 (2005).

----- AuxJ basis set information -----
Your calculation utilizes the auxiliary basis: def2/J
   H-Rn: F. Weigend, Phys. Chem. Chem. Phys. 8, 1057 (2006).
   Fr-Lr: K. Eichkorn, F. Weigend, O. Treutler, R. Ahlrichs; Theor. Chem. Acc. 97, 119 (1997).

================================================================================
                                        WARNINGS
                       Please study these warnings very carefully!
================================================================================


================================================================================
                                       INPUT FILE
================================================================================
NAME = orca.inp
|  1> ! B3LYP def2-SVP d3 EnGrad 
|  2> %pal nprocs 6 end 
|  3> *xyz 0 1 
|  4> C   -0.17490839928854 0.95614803451072 0.48005271918634
|  5> C   1.24879571606933 0.79573409319449 0.43780239043891
|  6> C   1.46336024117264 -0.26000457934811 -0.42013576194426
|  7> C   0.20984048955666 -0.95350197316442 -0.47539070448175
|  8> C   -0.95202137882846 1.34668136345689 1.70739053396893
|  9> C   -0.34565014422058 -1.6007806110664 -1.71447643830845
| 10> H   -0.66128279068823 1.19691898489968 -0.46866536148672
| 11> H   1.97277139013456 1.34257324232488 1.05521581652807
| 12> H   2.34753455676375 -0.48610743699795 -1.02946278513015
| 13> H   -0.15388892061692 -1.3668700574165 0.46853636355491
| 14> H   -0.54380212140746 0.88983944766754 2.62270215228952
| 15> H   -2.01063246862042 1.05346644359557 1.62001774379123
| 16> H   -0.93928907623802 2.44562179709482 1.84670992659691
| 17> H   0.20659345221115 -2.53329286692209 -1.94473913438848
| 18> H   -0.26383383423694 -0.94761426035875 -2.59827183327301
| 19> H   -1.40358671176249 -1.87881162147037 -1.58728562734202
| 20> *
| 21> 
| 22>                          ****END OF INPUT****
================================================================================

                     *******************************
                     * Energy+Gradient Calculation *
                     *******************************

---------------------------------
CARTESIAN COORDINATES (ANGSTROEM)
---------------------------------
  C     -0.174908    0.956148    0.480053
  C      1.248796    0.795734    0.437802
  C      1.463360   -0.260005   -0.420136
  C      0.209840   -0.953502   -0.475391
  C     -0.952021    1.346681    1.707391
  C     -0.345650   -1.600781   -1.714476
  H     -0.661283    1.196919   -0.468665
  H      1.972771    1.342573    1.055216
  H      2.347535   -0.486107   -1.029463
  H     -0.153889   -1.366870    0.468536
  H     -0.543802    0.889839    2.622702
  H     -2.010632    1.053466    1.620018
  H     -0.939289    2.445622    1.846710
  H      0.206593   -2.533293   -1.944739
  H     -0.263834   -0.947614   -2.598272
  H     -1.403587   -1.878812   -1.587286

----------------------------
CARTESIAN COORDINATES (A.U.)
----------------------------
  NO LB      ZA    FRAG     MASS         X           Y           Z
   0 C     6.0000    0    12.011   -0.330529    1.806858    0.907168
   1 C     6.0000    0    12.011    2.359882    1.503720    0.827327
   2 C     6.0000    0    12.011    2.765350   -0.491337   -0.793942
   3 C     6.0000    0    12.011    0.396541   -1.801858   -0.898358
   4 C     6.0000    0    12.011   -1.799060    2.544859    3.226501
   5 C     6.0000    0    12.011   -0.653184   -3.025037   -3.239891
   6 H     1.0000    0     1.008   -1.249643    2.261849   -0.885649
   7 H     1.0000    0     1.008    3.727998    2.537096    1.994069
   8 H     1.0000    0     1.008    4.436197   -0.918610   -1.945403
   9 H     1.0000    0     1.008   -0.290808   -2.583010    0.885405
  10 H     1.0000    0     1.008   -1.027637    1.681553    4.956189
  11 H     1.0000    0     1.008   -3.799545    1.990763    3.061390
  12 H     1.0000    0     1.008   -1.774999    4.621555    3.489776
  13 H     1.0000    0     1.008    0.390405   -4.787230   -3.675024
  14 H     1.0000    0     1.008   -0.498574   -1.790731   -4.910022
  15 H     1.0000    0     1.008   -2.652394   -3.550439   -2.999535

--------------------------------
INTERNAL COORDINATES (ANGSTROEM)
--------------------------------
 C      0   0   0     0.000000000000     0.00000000     0.00000000
 C      1   0   0     1.433335665828     0.00000000     0.00000000
 C      2   1   0     1.377200041188   105.00521593     0.00000000
 C      3   2   1     1.433632976600   104.98751163   340.61912254
 C      1   2   3     1.504253627412   124.48880097   143.64594144
 C      4   3   2     1.504284858353   124.24772837   143.26461424
 H      1   2   3     1.092976072820   116.17264511   298.73346826
 H      2   1   3     1.097439369795   125.65564655   185.95646349
 H      3   2   1     1.097345043171   129.00555427   154.38113584
 H      4   3   2     1.092781115629   116.14992547   298.51562217
 H      5   1   2     1.101427644825   112.26483452   322.43186240
 H      5   1   2     1.101937581319   111.25516694   201.06532662
 H      5   1   2     1.107809587147   110.74523433    82.75103802
 H      6   4   3     1.107958937112   110.44344095    73.71195885
 H      6   4   3     1.102004759716   112.21910639   314.20392997
 H      6   4   3     1.101230460023   111.60800086   192.45823606

---------------------------
INTERNAL COORDINATES (A.U.)
---------------------------
 C      0   0   0     0.000000000000     0.00000000     0.00000000
 C      1   0   0     2.708611866397     0.00000000     0.00000000
 C      2   1   0     2.602530909471   105.00521593     0.00000000
 C      3   2   1     2.709173702333   104.98751163   340.61912254
 C      1   2   3     2.842627391767   124.48880097   143.64594144
 C      4   3   2     2.842686409692   124.24772837   143.26461424
 H      1   2   3     2.065425448558   116.17264511   298.73346826
 H      2   1   3     2.073859857495   125.65564655   185.95646349
 H      3   2   1     2.073681606010   129.00555427   154.38113584
 H      4   3   2     2.065057032860   116.14992547   298.51562217
 H      5   1   2     2.081396605049   112.26483452   322.43186240
 H      5   1   2     2.082360245369   111.25516694   201.06532662
 H      5   1   2     2.093456728241   110.74523433    82.75103802
 H      6   4   3     2.093738958773   110.44344095    73.71195885
 H      6   4   3     2.082487194141   112.21910639   314.20392997
 H      6   4   3     2.081023979776   111.60800086   192.45823606

---------------------
BASIS SET INFORMATION
---------------------
There are 2 groups of distinct atoms

 Group   1 Type C   : 7s4p1d contracted to 3s2p1d pattern {511/31/1}
 Group   2 Type H   : 4s1p contracted to 2s1p pattern {31/1}

Atom   0C    basis set group =>   1
Atom   1C    basis set group =>   1
Atom   2C    basis set group =>   1
Atom   3C    basis set group =>   1
Atom   4C    basis set group =>   1
Atom   5C    basis set group =>   1
Atom   6H    basis set group =>   2
Atom   7H    basis set group =>   2
Atom   8H    basis set group =>   2
Atom   9H    basis set group =>   2
Atom  10H    basis set group =>   2
Atom  11H    basis set group =>   2
Atom  12H    basis set group =>   2
Atom  13H    basis set group =>   2
Atom  14H    basis set group =>   2
Atom  15H    basis set group =>   2
---------------------------------
AUXILIARY/J BASIS SET INFORMATION
---------------------------------
There are 2 groups of distinct atoms

 Group   1 Type C   : 12s5p4d2f1g contracted to 6s4p3d1f1g pattern {711111/2111/211/2/1}
 Group   2 Type H   : 5s2p1d contracted to 3s1p1d pattern {311/2/1}

Atom   0C    basis set group =>   1
Atom   1C    basis set group =>   1
Atom   2C    basis set group =>   1
Atom   3C    basis set group =>   1
Atom   4C    basis set group =>   1
Atom   5C    basis set group =>   1
Atom   6H    basis set group =>   2
Atom   7H    basis set group =>   2
Atom   8H    basis set group =>   2
Atom   9H    basis set group =>   2
Atom  10H    basis set group =>   2
Atom  11H    basis set group =>   2
Atom  12H    basis set group =>   2
Atom  13H    basis set group =>   2
Atom  14H    basis set group =>   2
Atom  15H    basis set group =>   2


           ************************************************************
           *        Program running with 6 parallel MPI-processes     *
           *              working on a common directory               *
           ************************************************************
------------------------------------------------------------------------------
                             ORCA STARTUP CALCULATIONS
                           -- RI-GTO INTEGRALS CHOSEN --
------------------------------------------------------------------------------
------------------------------------------------------------------------------
                   ___                                                        
                  /   \      - P O W E R E D   B Y -                         
                 /     \                                                     
                 |  |  |   _    _      __       _____    __    __             
                 |  |  |  | |  | |    /  \     |  _  \  |  |  /  |          
                  \  \/   | |  | |   /    \    | | | |  |  | /  /          
                 / \  \   | |__| |  /  /\  \   | |_| |  |  |/  /          
                |  |  |   |  __  | /  /__\  \  |    /   |      \           
                |  |  |   | |  | | |   __   |  |    \   |  |\   \          
                \     /   | |  | | |  |  |  |  | |\  \  |  | \   \       
                 \___/    |_|  |_| |__|  |__|  |_| \__\ |__|  \__/        
                                                                              
                      - O R C A' S   B I G   F R I E N D -                    
                                      &                                       
                       - I N T E G R A L  F E E D E R -                       
                                                                              
 v1 FN, 2020, v2 2021, v3 2022-2024                                           
------------------------------------------------------------------------------


----------------------
SHARK INTEGRAL PACKAGE
----------------------

Number of atoms                             ...     16
Number of basis functions                   ...    134
Number of shells                            ...     66
Maximum angular momentum                    ...      2
Integral batch strategy                     ... SHARK/LIBINT Hybrid
RI-J (if used) integral strategy            ... SPLIT-RIJ (Revised 2003 algorithm where possible)
Printlevel                                  ...      1
Contraction scheme used                     ... SEGMENTED contraction
Prescreening option                         ... SCHWARTZ
   Thresh                                   ... 2.500e-11
   Tcut                                     ... 2.500e-12
   Tpresel                                  ... 2.500e-12 
Coulomb Range Separation                    ... NOT USED
Exchange Range Separation                   ... NOT USED
Multipole approximations                    ... NOT USED
Finite Nucleus Model                        ... NOT USED
CABS basis                                  ... NOT available
Auxiliary Coulomb fitting basis             ... AVAILABLE
   # of basis functions in Aux-J            ...    404
   # of shells in Aux-J                     ...    140
   Maximum angular momentum in Aux-J        ...      4
Auxiliary J/K fitting basis                 ... NOT available
Auxiliary Correlation fitting basis         ... NOT available
Auxiliary 'external' fitting basis          ... NOT available

Checking pre-screening integrals            ... done (  0.0 sec) Dimension = 66
   => SHARK Basis and OBASIS are compatible. Storing Pre-screening
Shell pair information
Shell pair cut-off parameter TPreSel        ...   2.5e-12
Total number of shell pairs                 ...      2211
Shell pairs after pre-screening             ...      2112
Total number of primitive shell pairs       ...      7611
Primitive shell pairs kept                  ...      5591
          la=0 lb=0:    714 shell pairs
          la=1 lb=0:    792 shell pairs
          la=1 lb=1:    237 shell pairs
          la=2 lb=0:    220 shell pairs
          la=2 lb=1:    128 shell pairs
          la=2 lb=2:     21 shell pairs

Checking whether 4 symmetric matrices of dimension 134 fit in memory
:Max Core in MB      =   4096.00
 MB in use           =      6.00
 MB left             =   4090.00
 MB needed           =      0.28
 Data fit in memory  = YES
Calculating RI/J V-Matrix + Cholesky decomp.... done (  0.0 sec)
Calculating Nuclear repulsion               ... done (  0.0 sec) ENN=    221.060447337194 Eh

Diagonalization of the overlap matrix:
Smallest eigenvalue                        ... 8.201e-04
Time for diagonalization                   ...    0.002 sec
Threshold for overlap eigenvalues          ... 1.000e-07
Number of eigenvalues below threshold      ... 0
Time for construction of square roots      ...    0.001 sec
Total time needed                          ...    0.004 sec

-------------------
DFT GRID GENERATION
-------------------

General Integration Accuracy     IntAcc      ... 4.388
Radial Grid Type                 RadialGrid  ... OptM3 with GC (2021)
Angular Grid (max. ang.)         AngularGrid ... 4 (Lebedev-302)
Angular grid pruning method      GridPruning ... 4 (adaptive)
Weight generation scheme         WeightScheme... mBecke (2022)
Basis function cutoff            BFCut       ... 1.0000e-11
Integration weight cutoff        WCut        ... 1.0000e-14
Partially contracted basis set               ... off
Rotationally invariant grid construction     ... off
Angular grids for H and He will be reduced by one unit

Total number of grid points                  ...    68443
Total number of batches                      ...     1077
Average number of points per batch           ...       63
Average number of grid points per atom       ...     4278

--------------------
COSX GRID GENERATION
--------------------

GRIDX 1
-------
General Integration Accuracy     IntAcc      ... 3.816
Radial Grid Type                 RadialGrid  ... OptM3 with GC (2021)
Angular Grid (max. ang.)         AngularGrid ... 1 (Lebedev-50)
Angular grid pruning method      GridPruning ... 4 (adaptive)
Weight generation scheme         WeightScheme... mBecke (2022)
Basis function cutoff            BFCut       ... 1.0000e-11
Integration weight cutoff        WCut        ... 1.0000e-14
Partially contracted basis set               ... on
Rotationally invariant grid construction     ... off
Angular grids for H and He will be reduced by one unit

Total number of grid points                  ...     8798
Total number of batches                      ...       78
Average number of points per batch           ...      112
Average number of grid points per atom       ...      550
UseSFitting                                  ... on

GRIDX 2
-------
General Integration Accuracy     IntAcc      ... 4.020
Radial Grid Type                 RadialGrid  ... OptM3 with GC (2021)
Angular Grid (max. ang.)         AngularGrid ... 2 (Lebedev-110)
Angular grid pruning method      GridPruning ... 4 (adaptive)
Weight generation scheme         WeightScheme... mBecke (2022)
Basis function cutoff            BFCut       ... 1.0000e-11
Integration weight cutoff        WCut        ... 1.0000e-14
Partially contracted basis set               ... on
Rotationally invariant grid construction     ... off
Angular grids for H and He will be reduced by one unit

Total number of grid points                  ...    18479
Total number of batches                      ...      150
Average number of points per batch           ...      123
Average number of grid points per atom       ...     1155
UseSFitting                                  ... on

GRIDX 3
-------
General Integration Accuracy     IntAcc      ... 4.338
Radial Grid Type                 RadialGrid  ... OptM3 with GC (2021)
Angular Grid (max. ang.)         AngularGrid ... 3 (Lebedev-194)
Angular grid pruning method      GridPruning ... 4 (adaptive)
Weight generation scheme         WeightScheme... mBecke (2022)
Basis function cutoff            BFCut       ... 1.0000e-11
Integration weight cutoff        WCut        ... 1.0000e-14
Partially contracted basis set               ... on
Rotationally invariant grid construction     ... off
Angular grids for H and He will be reduced by one unit

Total number of grid points                  ...    40456
Total number of batches                      ...      323
Average number of points per batch           ...      125
Average number of grid points per atom       ...     2528
UseSFitting                                  ... on
Grids setup in   0.7 sec
Initializing property integral containers    ... done (  0.0 sec)

SHARK setup successfully completed in   0.8 seconds

Maximum memory used throughout the entire STARTUP-calculation: 18.2 MB


           ************************************************************
           *        Program running with 6 parallel MPI-processes     *
           *              working on a common directory               *
           ************************************************************
-------------------------------------------------------------------------------
                                 ORCA GUESS
                   Start orbitals & Density for SCF / CASSCF
-------------------------------------------------------------------------------

------------
SCF SETTINGS
------------
Hamiltonian:
 Density Functional     Method          .... DFT(GTOs)
 Exchange Functional    Exchange        .... B88
   X-Alpha parameter    XAlpha          ....  0.666667
   Becke's b parameter  XBeta           ....  0.004200
 Correlation Functional Correlation     .... LYP
 LDA part of GGA corr.  LDAOpt          .... VWN-5
 Gradients option       PostSCFGGA      .... off
 Hybrid DFT is turned on
   Fraction HF Exchange ScalHFX         ....  0.200000
   Scaling of DF-GGA-X  ScalDFX         ....  0.720000
   Scaling of DF-GGA-C  ScalDFC         ....  0.810000
   Scaling of DF-LDA-C  ScalLDAC        ....  1.000000
   Perturbative correction              ....  0.000000
   NL short-range parameter             ....  4.800000
 RI-approximation to the Coulomb term is turned on
   Number of AuxJ basis functions       .... 404
   RIJ-COSX (HFX calculated with COS-X)).... on


General Settings:
 Integral files         IntName         .... orca
 Hartree-Fock type      HFTyp           .... RHF
 Total Charge           Charge          ....    0
 Multiplicity           Mult            ....    1
 Number of Electrons    NEL             ....   46
 Basis Dimension        Dim             ....  134
 Nuclear Repulsion      ENuc            ....    221.0604473372 Eh

Convergence Acceleration:
 AO-DIIS                CNVDIIS         .... on
   Start iteration      DIISMaxIt       ....    12
   Startup error        DIISStart       ....  0.200000
   # of expansion vecs  DIISMaxEq       ....     5
   Bias factor          DIISBfac        ....   1.050
   Max. coefficient     DIISMaxC        ....  10.000
 MO-DIIS                CNVKDIIS        .... off
 Trust-Rad. Augm. Hess. CNVTRAH         .... auto
   Auto Start mean grad. ratio tolernc. ....  1.125000
   Auto Start start iteration           ....    50
   Auto Start num. interpolation iter.  ....    10
   Max. Number of Micro iterations      ....    24
   Max. Number of Macro iterations      .... Maxiter - #DIIS iter
   Number of Davidson start vectors     ....     2
   Converg. threshold    (grad. norm)   ....   1.000e-05
   Grad. Scal. Fac. for Micro threshold ....   0.100
   Minimum threshold for Micro iter.    ....   1.000e-02
   NR start threshold (gradient norm)   ....   1.000e-04
   Initial trust radius                 ....   0.400
   Minimum AH scaling param. (alpha)    ....   1.000
   Maximum AH scaling param. (alpha)    .... 1000.000
   Quad. conv. algorithm                .... NR
   White noise on init. David. guess    .... on
   Maximum white noise                  ....   0.010
   Pseudo random numbers                .... off
   Inactive MOs                         .... canonical
   Orbital update algorithm             .... Taylor
   Preconditioner                       .... Diag
   Full preconditioner red. dimension   ....   250
 SOSCF                 CNVSOSCF           .... on
   Start iteration     SOSCFMaxIt         ....   150
   Startup grad/error  SOSCFStart         ....  0.003300
   Hessian update      SOSCFHessUp        .... L-BFGS
   Autom. constraints  SOSCFAutoConstrain .... off
 Level Shifting         CNVShift        .... on
   Level shift para.    LevelShift      ....    0.2500
   Turn off err/grad.   ShiftErr        ....    0.0010
 Zerner damping         CNVZerner       .... off
 Static damping         CNVDamp         .... on
   Fraction old density DampFac         ....    0.7000
   Max. Damping (<1)    DampMax         ....    0.9800
   Min. Damping (>=0)   DampMin         ....    0.0000
   Turn off err/grad.   DampErr         ....    0.1000

SCF Procedure:
 Maximum # iterations   MaxIter         ....   125
 SCF integral mode      SCFMode         .... Direct
   Integral package                     .... SHARK and LIBINT hybrid scheme
 Reset frequency        DirectResetFreq ....    20
 Integral Threshold     Thresh          ....  2.500e-11 Eh
 Primitive CutOff       TCut            ....  2.500e-12 Eh

Convergence Tolerance:
 Convergence Check Mode ConvCheckMode   .... Total+1el-Energy
 Convergence forced     ConvForced      .... 0
 Energy Change          TolE            ....  1.000e-08 Eh
 1-El. energy change                    ....  1.000e-05 Eh
 Orbital Gradient       TolG            ....  1.000e-05
 Orbital Rotation angle TolX            ....  1.000e-05
 DIIS Error             TolErr          ....  5.000e-07

------------------------------
INITIAL GUESS: MODEL POTENTIAL
------------------------------
Loading Hartree-Fock densities                     ... done
Calculating cut-offs                               ... done
Initializing the effective Hamiltonian             ... done
Setting up the integral package (SHARK)            ... done
Starting the Coulomb interaction                   ... done (   0.0 sec)
Making the grid                                    ... done (   0.1 sec)
Mapping shells                                     ... done
Starting the XC term evaluation                    ... done (   0.0 sec)
  promolecular density results
     # of electrons  =     45.995993685
     EX              =    -33.750807577
     EC              =     -1.467404227
     EX+EC           =    -35.218211804
Transforming the Hamiltonian                       ... done (   0.0 sec)
Diagonalizing the Hamiltonian                      ... done (   0.0 sec)
Back transforming the eigenvectors                 ... done (   0.0 sec)
Now organizing SCF variables                       ... done
                      ------------------
                      INITIAL GUESS DONE (   0.2 sec)
                      ------------------
             **** ENERGY FILE WAS UPDATED (orca.en.tmp) ****
Finished Guess after   0.3 sec
Maximum memory used throughout the entire GUESS-calculation: 8.5 MB


           ************************************************************
           *        Program running with 6 parallel MPI-processes     *
           *              working on a common directory               *
           ************************************************************

-------------------------------------------------------------------------------------------
                                      ORCA LEAN-SCF
                              memory conserving SCF solver
-------------------------------------------------------------------------------------------

----------------------------------------D-I-I-S--------------------------------------------
Iteration    Energy (Eh)           Delta-E    RMSDP     MaxDP     DIISErr   Damp  Time(sec)
-------------------------------------------------------------------------------------------
               ***  Starting incremental Fock matrix formation  ***
    1    -234.0360431061060353     0.00e+00  8.45e-03  7.58e-02  1.64e-01  0.700   0.8
    2    -234.1198953413332333    -8.39e-02  6.16e-03  4.73e-02  8.84e-02  0.700   0.5
                               ***Turning on AO-DIIS***
    3    -234.1560102943955712    -3.61e-02  2.55e-03  1.33e-02  3.56e-02  0.700   0.5
    4    -234.1764281597760942    -2.04e-02  4.48e-03  2.14e-02  1.84e-02  0.000   0.5
    5    -234.2199612146436607    -4.35e-02  7.70e-04  4.00e-03  5.48e-03  0.000   0.5
                              *** Initializing SOSCF ***
---------------------------------------S-O-S-C-F--------------------------------------
Iteration    Energy (Eh)           Delta-E    RMSDP     MaxDP     MaxGrad    Time(sec)
--------------------------------------------------------------------------------------
    6    -234.2202196415023536    -2.58e-04  2.90e-04  1.55e-03  1.43e-03     0.5
               *** Restarting incremental Fock matrix formation ***
    7    -234.2202201271883268    -4.86e-07  2.15e-04  9.59e-04  2.21e-04     0.8
    8    -234.2202199828347489     1.44e-07  7.87e-05  5.08e-04  3.00e-04     0.5
    9    -234.2202225368130826    -2.55e-06  2.96e-05  1.60e-04  3.65e-05     0.5
   10    -234.2202224948661637     4.19e-08  1.43e-05  1.15e-04  4.65e-05     0.5
   11    -234.2202226053007621    -1.10e-07  2.37e-06  1.89e-05  4.41e-06     0.5
   12    -234.2202226052597780     4.10e-11  1.24e-06  1.26e-05  1.02e-05     0.5
                 **** Energy Check signals convergence ****

               *****************************************************
               *                     SUCCESS                       *
               *           SCF CONVERGED AFTER  12 CYCLES          *
               *****************************************************

Recomputing exchange energy using gridx3       ... done (    1.172 sec)
Old exchange energy                            :     -6.895359719 Eh
New exchange energy                            :     -6.895364623 Eh
Exchange energy change after final integration :     -0.000004904 Eh
Total energy after final integration           :   -234.220227510 Eh
             **** ENERGY FILE WAS UPDATED (orca.en.tmp) ****

----------------
TOTAL SCF ENERGY
----------------

Total Energy       :       -234.22022750954039 Eh           -6373.45641 eV

Components:
Nuclear Repulsion  :        221.06044733719392 Eh            6015.36059 eV
Electronic Energy  :       -455.28066994246507 Eh          -12388.81686 eV
One Electron Energy:       -751.57333270034871 Eh          -20451.35011 eV
Two Electron Energy:        296.29266275788365 Eh            8062.53324 eV

Virial components:
Potential Energy   :       -465.62470355252304 Eh          -12670.29233 eV
Kinetic Energy     :        231.40447604298265 Eh            6296.83592 eV
Virial Ratio       :          2.01216809421627

DFT components:
N(Alpha)           :       23.000000850658 electrons
N(Beta)            :       23.000000850658 electrons
N(Total)           :       46.000001701317 electrons
E(X)               :      -27.347921536735 Eh       
E(C)               :       -1.745216852580 Eh       
E(XC)              :      -29.093138389316 Eh       

---------------
SCF CONVERGENCE
---------------

  Last Energy change         ...   -4.0984e-11  Tolerance :   1.0000e-08
  Last MAX-Density change    ...    1.2627e-05  Tolerance :   1.0000e-07
  Last RMS-Density change    ...    1.2436e-06  Tolerance :   5.0000e-09
  Last DIIS Error            ...    1.4261e-03  Tolerance :   5.0000e-07
  Last Orbital Gradient      ...    1.0218e-05  Tolerance :   1.0000e-05
  Last Orbital Rotation      ...    1.7251e-05  Tolerance :   1.0000e-05


----------------
ORBITAL ENERGIES
----------------

  NO   OCC          E(Eh)            E(eV) 
   0   2.0000     -10.193612      -277.3823 
   1   2.0000     -10.193533      -277.3801 
   2   2.0000     -10.179921      -277.0097 
   3   2.0000     -10.179912      -277.0095 
   4   2.0000     -10.170256      -276.7467 
   5   2.0000     -10.169752      -276.7330 
   6   2.0000      -0.818271       -22.2663 
   7   2.0000      -0.739420       -20.1206 
   8   2.0000      -0.704973       -19.1833 
   9   2.0000      -0.609410       -16.5829 
  10   2.0000      -0.573821       -15.6145 
  11   2.0000      -0.510269       -13.8851 
  12   2.0000      -0.459987       -12.5169 
  13   2.0000      -0.441472       -12.0131 
  14   2.0000      -0.424765       -11.5585 
  15   2.0000      -0.405541       -11.0353 
  16   2.0000      -0.401925       -10.9369 
  17   2.0000      -0.384086       -10.4515 
  18   2.0000      -0.355762        -9.6808 
  19   2.0000      -0.352355        -9.5881 
  20   2.0000      -0.338694        -9.2163 
  21   2.0000      -0.233614        -6.3570 
  22   2.0000      -0.213824        -5.8184 
  23   0.0000      -0.006798        -0.1850 
  24   0.0000       0.018227         0.4960 
  25   0.0000       0.073711         2.0058 
  26   0.0000       0.080800         2.1987 
  27   0.0000       0.106147         2.8884 
  28   0.0000       0.112863         3.0712 
  29   0.0000       0.134015         3.6467 
  30   0.0000       0.137587         3.7439 
  31   0.0000       0.141331         3.8458 
  32   0.0000       0.149282         4.0622 
  33   0.0000       0.155442         4.2298 
*Only the first 10 virtual orbitals were printed.

                    ********************************
                    * MULLIKEN POPULATION ANALYSIS *
                    ********************************

-----------------------
MULLIKEN ATOMIC CHARGES
-----------------------
   0 C :   -0.118566
   1 C :   -0.020936
   2 C :   -0.023540
   3 C :   -0.115389
   4 C :    0.070451
   5 C :    0.068466
   6 H :    0.038916
   7 H :   -0.020812
   8 H :   -0.021181
   9 H :    0.039021
  10 H :    0.012392
  11 H :    0.015826
  12 H :    0.023205
  13 H :    0.023712
  14 H :    0.014522
  15 H :    0.013913
Sum of atomic charges:    0.0000000

--------------------------------
MULLIKEN REDUCED ORBITAL CHARGES
--------------------------------
  0 C s       :     3.172855  s :     3.172855
      pz      :     0.963449  p :     2.907723
      px      :     0.957920
      py      :     0.986354
      dz2     :     0.007938  d :     0.037988
      dxz     :     0.012899
      dyz     :     0.005184
      dx2y2   :     0.007028
      dxy     :     0.004939

  1 C s       :     3.200976  s :     3.200976
      pz      :     0.934759  p :     2.782390
      px      :     0.876244
      py      :     0.971388
      dz2     :     0.005553  d :     0.037569
      dxz     :     0.007112
      dyz     :     0.005342
      dx2y2   :     0.009079
      dxy     :     0.010482

  2 C s       :     3.203471  s :     3.203471
      pz      :     0.936489  p :     2.782559
      px      :     0.863028
      py      :     0.983041
      dz2     :     0.005516  d :     0.037510
      dxz     :     0.007160
      dyz     :     0.005250
      dx2y2   :     0.010714
      dxy     :     0.008869

  3 C s       :     3.169857  s :     3.169857
      pz      :     0.962791  p :     2.907551
      px      :     0.950199
      py      :     0.994560
      dz2     :     0.007878  d :     0.037981
      dxz     :     0.008945
      dyz     :     0.009309
      dx2y2   :     0.006238
      dxy     :     0.005612

  4 C s       :     2.952667  s :     2.952667
      pz      :     0.977098  p :     2.948425
      px      :     0.989387
      py      :     0.981940
      dz2     :     0.008046  d :     0.028457
      dxz     :     0.005409
      dyz     :     0.004768
      dx2y2   :     0.007836
      dxy     :     0.002398

  5 C s       :     2.954587  s :     2.954587
      pz      :     0.977846  p :     2.948517
      px      :     0.988817
      py      :     0.981854
      dz2     :     0.007418  d :     0.028430
      dxz     :     0.003267
      dyz     :     0.007757
      dx2y2   :     0.005161
      dxy     :     0.004827

  6 H s       :     0.937313  s :     0.937313
      pz      :     0.011608  p :     0.023772
      px      :     0.005713
      py      :     0.006451

  7 H s       :     0.998188  s :     0.998188
      pz      :     0.007578  p :     0.022624
      px      :     0.008139
      py      :     0.006907

  8 H s       :     0.998541  s :     0.998541
      pz      :     0.007497  p :     0.022639
      px      :     0.010684
      py      :     0.004459

  9 H s       :     0.937160  s :     0.937160
      pz      :     0.011539  p :     0.023819
      px      :     0.005945
      py      :     0.006335

 10 H s       :     0.964610  s :     0.964610
      pz      :     0.010658  p :     0.022998
      px      :     0.005862
      py      :     0.006477

 11 H s       :     0.960855  s :     0.960855
      pz      :     0.004366  p :     0.023319
      px      :     0.013130
      py      :     0.005823

 12 H s       :     0.953167  s :     0.953167
      pz      :     0.004759  p :     0.023628
      px      :     0.005096
      py      :     0.013773

 13 H s       :     0.952584  s :     0.952584
      pz      :     0.005102  p :     0.023704
      px      :     0.007215
      py      :     0.011387

 14 H s       :     0.962448  s :     0.962448
      pz      :     0.010196  p :     0.023030
      px      :     0.004914
      py      :     0.007919

 15 H s       :     0.962884  s :     0.962884
      pz      :     0.004346  p :     0.023203
      px      :     0.013285
      py      :     0.005571



                     *******************************
                     * LOEWDIN POPULATION ANALYSIS *
                     *******************************

----------------------
LOEWDIN ATOMIC CHARGES
----------------------
   0 C :   -0.009069
   1 C :   -0.055146
   2 C :   -0.055518
   3 C :   -0.009012
   4 C :   -0.067368
   5 C :   -0.067422
   6 H :    0.028171
   7 H :    0.010291
   8 H :    0.010187
   9 H :    0.028373
  10 H :    0.025252
  11 H :    0.031767
  12 H :    0.036385
  13 H :    0.037239
  14 H :    0.026038
  15 H :    0.029832

-------------------------------
LOEWDIN REDUCED ORBITAL CHARGES
-------------------------------
  0 C s       :     2.895730  s :     2.895730
      pz      :     1.041957  p :     3.025102
      px      :     1.048389
      py      :     0.934756
      dz2     :     0.019357  d :     0.088237
      dxz     :     0.032344
      dyz     :     0.010480
      dx2y2   :     0.016858
      dxy     :     0.009198

  1 C s       :     2.875225  s :     2.875225
      pz      :     1.029641  p :     3.084255
      px      :     1.033265
      py      :     1.021350
      dz2     :     0.012206  d :     0.095666
      dxz     :     0.017412
      dyz     :     0.015257
      dx2y2   :     0.025922
      dxy     :     0.024869

  2 C s       :     2.875339  s :     2.875339
      pz      :     1.029751  p :     3.084666
      px      :     1.021963
      py      :     1.032952
      dz2     :     0.012109  d :     0.095513
      dxz     :     0.017610
      dyz     :     0.014958
      dx2y2   :     0.027567
      dxy     :     0.023269

  3 C s       :     2.895820  s :     2.895820
      pz      :     1.041794  p :     3.025007
      px      :     1.021725
      py      :     0.961489
      dz2     :     0.019292  d :     0.088185
      dxz     :     0.021621
      dyz     :     0.021440
      dx2y2   :     0.012486
      dxy     :     0.013346

  4 C s       :     2.841270  s :     2.841270
      pz      :     1.045862  p :     3.153155
      px      :     1.051296
      py      :     1.055997
      dz2     :     0.020111  d :     0.072943
      dxz     :     0.014713
      dyz     :     0.012101
      dx2y2   :     0.020120
      dxy     :     0.005898

  5 C s       :     2.841292  s :     2.841292
      pz      :     1.045919  p :     3.153176
      px      :     1.054198
      py      :     1.053059
      dz2     :     0.018524  d :     0.072954
      dxz     :     0.008237
      dyz     :     0.020795
      dx2y2   :     0.013159
      dxy     :     0.012240

  6 H s       :     0.896671  s :     0.896671
      pz      :     0.036167  p :     0.075158
      px      :     0.017316
      py      :     0.021674

  7 H s       :     0.921531  s :     0.921531
      pz      :     0.022514  p :     0.068178
      px      :     0.024887
      py      :     0.020777

  8 H s       :     0.921553  s :     0.921553
      pz      :     0.022341  p :     0.068260
      px      :     0.031818
      py      :     0.014101

  9 H s       :     0.896319  s :     0.896319
      pz      :     0.035959  p :     0.075308
      px      :     0.018142
      py      :     0.021208

 10 H s       :     0.911219  s :     0.911219
      pz      :     0.031233  p :     0.063529
      px      :     0.015661
      py      :     0.016635

 11 H s       :     0.904507  s :     0.904507
      pz      :     0.012198  p :     0.063727
      px      :     0.037361
      py      :     0.014168

 12 H s       :     0.899314  s :     0.899314
      pz      :     0.012915  p :     0.064301
      px      :     0.012433
      py      :     0.038953

 13 H s       :     0.898410  s :     0.898410
      pz      :     0.013896  p :     0.064352
      px      :     0.018719
      py      :     0.031737

 14 H s       :     0.910410  s :     0.910410
      pz      :     0.029902  p :     0.063551
      px      :     0.012040
      py      :     0.021609

 15 H s       :     0.906483  s :     0.906483
      pz      :     0.012347  p :     0.063685
      px      :     0.037324
      py      :     0.014014



                      *****************************
                      * MAYER POPULATION ANALYSIS *
                      *****************************

  NA   - Mulliken gross atomic population
  ZA   - Total nuclear charge
  QA   - Mulliken gross atomic charge
  VA   - Mayer's total valence
  BVA  - Mayer's bonded valence
  FA   - Mayer's free valence

  ATOM       NA         ZA         QA         VA         BVA        FA
  0 C      6.1186     6.0000    -0.1186     4.0478     4.0478     0.0000
  1 C      6.0209     6.0000    -0.0209     3.8564     3.8564    -0.0000
  2 C      6.0235     6.0000    -0.0235     3.8570     3.8570    -0.0000
  3 C      6.1154     6.0000    -0.1154     4.0458     4.0458    -0.0000
  4 C      5.9295     6.0000     0.0705     3.9233     3.9233     0.0000
  5 C      5.9315     6.0000     0.0685     3.9249     3.9249     0.0000
  6 H      0.9611     1.0000     0.0389     0.9739     0.9739     0.0000
  7 H      1.0208     1.0000    -0.0208     0.9842     0.9842    -0.0000
  8 H      1.0212     1.0000    -0.0212     0.9844     0.9844    -0.0000
  9 H      0.9610     1.0000     0.0390     0.9744     0.9744     0.0000
 10 H      0.9876     1.0000     0.0124     0.9911     0.9911     0.0000
 11 H      0.9842     1.0000     0.0158     0.9888     0.9888     0.0000
 12 H      0.9768     1.0000     0.0232     0.9861     0.9861     0.0000
 13 H      0.9763     1.0000     0.0237     0.9871     0.9871     0.0000
 14 H      0.9855     1.0000     0.0145     0.9897     0.9897     0.0000
 15 H      0.9861     1.0000     0.0139     0.9879     0.9879     0.0000

  Mayer bond orders larger than 0.100000
B(  0-C ,  1-C ) :   1.3236 B(  0-C ,  3-C ) :   0.6387 B(  0-C ,  4-C ) :   1.0729 
B(  0-C ,  6-H ) :   0.9257 B(  1-C ,  2-C ) :   1.5384 B(  1-C ,  7-H ) :   0.9924 
B(  2-C ,  3-C ) :   1.3235 B(  2-C ,  8-H ) :   0.9928 B(  3-C ,  5-C ) :   1.0735 
B(  3-C ,  9-H ) :   0.9266 B(  4-C , 10-H ) :   0.9689 B(  4-C , 11-H ) :   0.9590 
B(  4-C , 12-H ) :   0.9424 B(  5-C , 13-H ) :   0.9426 B(  5-C , 14-H ) :   0.9673 
B(  5-C , 15-H ) :   0.9610 

-------
TIMINGS
-------

Total SCF time: 0 days 0 hours 0 min 8 sec 

Total time                  ....       8.558 sec
Sum of individual times     ....       8.090 sec  ( 94.5%)

SCF preparation             ....       0.173 sec  (  2.0%)
Fock matrix formation       ....       7.683 sec  ( 89.8%)
  Startup                   ....       0.004 sec  (  0.1% of F)
  Split-RI-J                ....       0.662 sec  (  8.6% of F)
  Chain of spheres X        ....       5.705 sec  ( 74.2% of F)
  XC integration            ....       1.609 sec  ( 20.9% of F)
    XC Preparation          ....       0.000 sec  (  0.0% of XC)
    Basis function eval.    ....       0.468 sec  ( 29.1% of XC)
    Density eval.           ....       0.267 sec  ( 16.6% of XC)
    XC-Functional eval.     ....       0.089 sec  (  5.5% of XC)
    XC-Potential eval.      ....       0.295 sec  ( 18.4% of XC)
Diagonalization             ....       0.000 sec  (  0.0%)
Density matrix formation    ....       0.034 sec  (  0.4%)
Total Energy calculation    ....       0.016 sec  (  0.2%)
Population analysis         ....       0.013 sec  (  0.2%)
Orbital Transformation      ....       0.017 sec  (  0.2%)
Orbital Orthonormalization  ....       0.000 sec  (  0.0%)
DIIS solution               ....       0.094 sec  (  1.1%)
SOSCF solution              ....       0.060 sec  (  0.7%)
Finished LeanSCF after   8.6 sec

Maximum memory used throughout the entire LEANSCF-calculation: 11.9 MB


-------------------------------------------------------------------------------
                          DFT DISPERSION CORRECTION                            
                                                                               
                              DFTD3 V3.1  Rev 1                                
                          USING Becke-Johnson damping                          
-------------------------------------------------------------------------------
The B3LYP functional is recognized
Active option DFTDOPT                   ...         4   

molecular C6(AA) [au] = 2093.842555 


            DFT-D V3
 parameters
 s6 scaling factor         :     1.0000 
 a1 scaling factor         :     0.3981 
 s8 scaling factor         :     1.9889 
 a2 scaling factor         :     4.4211 
 ad hoc parameters k1-k3   :    16.0000     1.3333    -4.0000 

 Edisp/kcal,au: -13.362081020241  -0.021293829252 
 E6   /kcal   :  -6.467982625 
 E8   /kcal   :  -6.894098395 
 % E8         :  51.594496281 

-------------------------   ----------------
Dispersion correction           -0.021293829
-------------------------   ----------------


-------------------------   --------------------
FINAL SINGLE POINT ENERGY      -234.241521338793
-------------------------   --------------------



           ************************************************************
           *        Program running with 6 parallel MPI-processes     *
           *              working on a common directory               *
           ************************************************************
------------------------------------------------------------------------------
                         ORCA SCF GRADIENT CALCULATION
------------------------------------------------------------------------------

Nuc. rep. gradient        (SHARK) ... done (  0.0 sec)
HCore & Overlap gradient  (SHARK) ... done (  0.0 sec)
Split-RIJ-J gradient      (SHARK) ... done (  0.3 sec)
done (  4.5 sec)
XC gradient                       ... done (  0.9 sec)
Dispersion correction             ... done (  0.0 sec)

-------------------
DISPERSION GRADIENT
-------------------

   1   C   :    0.000838219   -0.001713662   -0.000968831
   2   C   :    0.000012701   -0.000470202   -0.000281679
   3   C   :   -0.000173402    0.000436482    0.000284363
   4   C   :    0.000110938    0.001901501    0.000974185
   5   C   :   -0.000309603    0.000314825    0.000339395
   6   C   :   -0.000160396   -0.000407451   -0.000343569
   7   H   :   -0.000081615    0.000220961    0.000022029
   8   H   :    0.000264052    0.000122806    0.000059585
   9   H   :    0.000292486   -0.000011888   -0.000055858
  10   H   :    0.000009359   -0.000237284   -0.000020390
  11   H   :   -0.000138237    0.000079274    0.000273966
  12   H   :   -0.000209374    0.000096143    0.000148284
  13   H   :   -0.000136491    0.000143723    0.000130430
  14   H   :   -0.000064265   -0.000183552   -0.000142252
  15   H   :   -0.000107254   -0.000123020   -0.000281553
  16   H   :   -0.000147119   -0.000168658   -0.000138106

Difference to translation invariance:
           :    0.0000000000   -0.0000000000   -0.0000000000

Difference to rotation invariance:
           :    0.0000000000    0.0000000000   -0.0000000000

Norm of the Dispersion gradient    ...    0.0033364355
RMS gradient                       ...    0.0004815730
MAX gradient                       ...    0.0019015011

------------------
CARTESIAN GRADIENT
------------------

   1   C   :    0.000018809    0.000002587    0.000041158
   2   C   :    0.000013649   -0.000003605    0.000005572
   3   C   :    0.000009113    0.000003911   -0.000010400
   4   C   :    0.000011568   -0.000136446   -0.000083329
   5   C   :    0.000046381    0.000088645   -0.000085101
   6   C   :   -0.000061011   -0.000019069    0.000079944
   7   H   :    0.000013385    0.000000879    0.000025773
   8   H   :   -0.000030117    0.000040632    0.000018337
   9   H   :   -0.000035024    0.000024913    0.000026728
  10   H   :   -0.000026128   -0.000026558   -0.000011478
  11   H   :   -0.000019974   -0.000094346    0.000005753
  12   H   :    0.000001278   -0.000016486    0.000008618
  13   H   :    0.000011823    0.000018463   -0.000043476
  14   H   :    0.000065131    0.000042292    0.000053993
  15   H   :   -0.000047073    0.000064504   -0.000047629
  16   H   :    0.000028192    0.000009683    0.000015537

Difference to translation invariance:
           :    0.0000000000   -0.0000000000   -0.0000000000

Difference to rotation invariance:
           :   -0.0000330016   -0.0000542935    0.0000731210

Norm of the Cartesian gradient     ...    0.0003074206
RMS gradient                       ...    0.0000443723
MAX gradient                       ...    0.0001364457

-------
TIMINGS
-------

Total SCF gradient time     ....        5.802 sec

Densities                   ....       0.001 sec  (  0.0%)
One electron gradient       ....       0.045 sec  (  0.8%)
RI-J Coulomb gradient       ....       0.251 sec  (  4.3%)
COSX gradient               ....       4.515 sec  ( 77.8%)
XC gradient                 ....       0.938 sec  ( 16.2%)

Maximum memory used throughout the entire SCFGRAD-calculation: 28.5 MB


           ************************************************************
           *        Program running with 6 parallel MPI-processes     *
           *              working on a common directory               *
           ************************************************************

------------------------------------------------------------------------------
                              ORCA PROPERTY CALCULATIONS
------------------------------------------------------------------------------

GBWName                                 ... orca.gbw
Number of atoms                         ...     16
Number of basis functions               ...    134
Max core memory                         ...   4096 MB

Electric properties:
Dipole moment                           ... YES
Quadrupole moment                       ...  NO
Static polarizability (Dipole/Dipole)   ...  NO
Static polarizability (Dipole/Quad.)    ...  NO
Static polarizability (Quad./Quad.)     ...  NO
Static polarizability (Velocity)        ...  NO
Static hyperpolarizability              ...  NO

Atomic electric properties:
Dipole moment                           ...  NO
Quadrupole moment                       ...  NO
Static polarizability                   ...  NO

Choice of electric origin               ... Center of mass
Position of electric origin             ...     0.366874     0.071956     0.003858

General magnetic properties:
Magnetizability                         ...  NO

EPR properties:
g-Tensor (aka g-matrix)                 ...  NO
Zero-Field splitting spin-orbit         ...  NO
Zero-field splitting spin-spin          ...  NO
Hyperfine couplings                     ...  NO (   0 nuclei)
Quadrupole couplings                    ...  NO (   0 nuclei)
Contact density                         ...  NO (   0 nuclei)

NMR properties:
Chemical shifts                         ...  NO (   0 nuclei)
Spin-rotation constants                 ...  NO (   0 nuclei)
Spin-spin couplings                     ...  NO (   0 nuclei,    0 pairs)

Choice of magnetic origin               ... GIAO
Position of magnetic origin             ...     0.000000     0.000000     0.000000

Properties with geometric perturbations:
SCF Hessian                             ...  NO
IR spectrum                             ...  NO
VCD spectrum                            ...  NO
X-ray spectroscopy properties:
SCF XES/XAS/RIXS spectra                ...  NO

SCF SOC stabilization energy            ...  NO
Diagonal Born-Oppenheimer correction    ...  NO

-------------
DIPOLE MOMENT
-------------

Method             : SCF
Type of density    : Electron Density
Multiplicity       :   1
Irrep              :   0
Energy             :  -234.2202275095403934 Eh
Basis              : AO
                                X                 Y                 Z
Electronic contribution:      2.918116349       0.572822307       0.029141353
Nuclear contribution   :     -3.181196153      -0.623932972      -0.033454940
                        -----------------------------------------
Total Dipole Moment    :     -0.263079804      -0.051110665      -0.004313587
                        -----------------------------------------
Magnitude (a.u.)       :      0.268033376
Magnitude (Debye)      :      0.681286699



--------------------
Rotational spectrum 
--------------------
 
Rotational constants in cm-1:             0.210040             0.077404             0.060681 
Rotational constants in MHz :          6296.845922          2320.516630          1819.156102 

Dipole components along the rotational axes: 
x,y,z [a.u.] :    -0.000931     0.268021    -0.002439 
x,y,z [Debye]:    -0.002366     0.681254    -0.006200 

 

Dipole moment calculation done in   0.0 sec 

Maximum memory used throughout the entire PROP-calculation: 6.6 MB

--------------------------------
SUGGESTED CITATIONS FOR THIS RUN
--------------------------------

Below you find a list of papers that are relevant to this ORCA run
We neither can nor want to force you to cite these papers, but we appreciate if you do
You receive ORCA, which is the product of decades of hard work by many enthusiastic individuals, for free
The only thing we kindly ask in return is that you cite our papers,
We deeply appreciate it, if you show your appreciation for ORCA by not just citing the generic ORCA reference.

Please note that relegating all ORCA citations to the supporting information does *not* help us.
SI sections are not indexed - citations you put there will not count into any citation statistics
But we need these citations in order to attract the funding resources that allow us to do what we are doing

Therefore, if you are a happy ORCA user, please consider citing a few of the papers listed below in the main body of your paper

In addition to the list printed below, the program has created the file orca.bibtex that contains the list in bibtex format
You can import this file easily into all common literature databanks and citation aid programs


List of essential papers. We consider these as the minimum necessary citations

  1. Neese, F.
     Software update: the ORCA program system, version 6.0
     WIRES Comput. Molec. Sci. 2025 15(1), e70019
     doi.org/10.1002/wcms.7019

List of papers to cite with high priority. The work reported in these papers was absolutely
necessary for this run to complete.
Our perspective: the developers of density functionals and basis sets usually get cited in chemistry papers
Good! But without the algorithms to do something with them, the functionals or basis sets would not do anything.
Hence, in our opinion, the algorithm design and method developments papers are equally worthy of getting cited

  1. Neese, F.
     An improvement of the resolution of the identity approximation for the formation of the Coulomb matrix
     J. Comp. Chem. 2003 24(14), 1740-1747
     doi.org/10.1002/jcc.10318
  2. Neese, F.; Wennmohs, F.; Hansen, A.; Becker, U.
     Efficient, approximate and parallel Hartree-Fock and hybrid DFT calculations. A 'chain-of-spheres' algorithm for the Hartree-Fock exchange
     Chem. Phys. 2009 356(1-3), 98-109
     doi.org/10.1016/j.chemphys.2008.10.036
  3. Grimme, S.; Antony, J.; Ehrlich, S.; Krieg, H.
     A consistent and accurate ab initio parametrization of density functional dispersion correction (DFT-D) for the 94 elements H-Pu
     J. Chem. Phys. 2010 132 , 154104
     doi.org/10.1063/1.3382344
  4. Grimme, S.; Ehrlich, S.; Goerigk, L.
     Effect of the damping function in dispersion corrected density functional theory
     J. Comput. Chem. 2011 32(7), 1456-1465
     doi.org/10.1002/jcc.21759
  5. Helmich-Paris, B.; de Souza, B.; Neese, F.; Izsák, R.
     An improved chain of spheres for exchange algorithm
     J. Chem. Phys. 2021 155(10), 104109
     doi.org/10.1063/5.0058766
  6. Neese, F.
     The SHARK Integral Generation and Digestion System
     J. Comp. Chem. 2022 44(3), 381
     doi.org/10.1002/jcc.26942

List of suggested additional citations. These are papers that are important in the 'surrounding' of 
of this run, or papers that preceded the highly important papers. If you like your results we are grateful for a citation.

  1. Izsak, R.; Neese, F.
     An overlap fitted chain of spheres exchange method
     J. Chem. Phys. 2011 135 , 144105
     doi.org/10.1063/1.3646921
  2. Izsak, R.; Hansen, A.; Neese, F.
     The resolution of identity and chain of spheres approximations for the LPNO-CCSD singles Fock term
     Molec. Phys. 2012 110 , 2413-2417
     doi.org/10.1080/00268976.2012.687466
  3. Neese, F.
     The ORCA program system
     WIRES Comput. Molec. Sci. 2012 2(1), 73-78
     doi.org/10.1002/wcms.81
  4. Izsak, R.; Neese, F.; Klopper, W.
     Robust fitting techniques in the chain of spheres approximation to the Fock exchange: The role of the complementary space
     J. Chem. Phys. 2013 139 , 
     doi.org/10.1063/1.4819264
  5. Neese, F.
     Software update: the ORCA program system, version 4.0
     WIRES Comput. Molec. Sci. 2018 8(1), 1-6
     doi.org/10.1002/wcms.1327
  6. Neese, F.; Wennmohs, F.; Becker, U.; Riplinger, C.
     The ORCA quantum chemistry program package
     J. Chem. Phys. 2020 152(22), 224108
     doi.org/10.1063/5.0004608
  7. Neese, F.
     Software update: The ORCA program system—Version 5.0
     WIRES Comput. Molec. Sci. 2022 12(1), e1606
     doi.org/10.1002/wcms.1606

List of optional additional citations

  1. Neese, F.
     Approximate second-order SCF convergence for spin unrestricted wavefunctions
     Chem. Phys. Lett. 2000 325(1-3), 93-98
     doi.org/10.1016/s0009-2614(00)00662-x

Timings for individual modules:

Sum of individual times          ...       17.602 sec (=   0.293 min)
Startup calculation              ...        1.243 sec (=   0.021 min)   7.1 %
SCF iterations                   ...        9.633 sec (=   0.161 min)  54.7 %
Property calculations            ...        0.446 sec (=   0.007 min)   2.5 %
SCF Gradient evaluation          ...        6.280 sec (=   0.105 min)  35.7 %
                             ****ORCA TERMINATED NORMALLY****
TOTAL RUN TIME: 0 days 0 hours 0 minutes 18 seconds 173 msec
