
                                 *****************
                                 * O   R   C   A *
                                 *****************

                                            #,                                       
                                            ###                                      
                                            ####                                     
                                            #####                                    
                                            ######                                   
                                           ########,                                 
                                     ,,################,,,,,                         
                               ,,#################################,,                 
                          ,,##########################################,,             
                       ,#########################################, ''#####,          
                    ,#############################################,,   '####,        
                  ,##################################################,,,,####,       
                ,###########''''           ''''###############################       
              ,#####''   ,,,,##########,,,,          '''####'''          '####       
            ,##' ,,,,###########################,,,                        '##       
           ' ,,###''''                  '''############,,,                           
         ,,##''                                '''############,,,,        ,,,,,,###''
      ,#''                                            '''#######################'''  
     '                                                          ''''####''''         
             ,#######,   #######,   ,#######,      ##                                
            ,#'     '#,  ##    ##  ,#'     '#,    #''#        ,####,    ,#,          
            ##       ##  ##   ,#'  ##            #'  '#       #'       ,# #          
            ##       ##  #######   ##           ,######,      #####,      #          
            '#,     ,#'  ##    ##  '#,     ,#' ,#      #,     #,   #      #          
             '#######'   ##     ##  '#######'  #'      '#     '####' #    #          



                #########################################################
                #                        -***-                          #
                #          Department of theory and spectroscopy        #
                #                                                       #
                #                      Frank Neese                      #
                #                                                       #
                #     Directorship, Architecture, Infrastructure        #
                #                    SHARK, DRIVERS                     #
                #        Core code/Algorithms in most modules           #
                #                                                       #
                #        Max Planck Institute fuer Kohlenforschung      #
                #                Kaiser Wilhelm Platz 1                 #
                #                 D-45470 Muelheim/Ruhr                 #
                #                      Germany                          #
                #                                                       #
                #                  All rights reserved                  #
                #                        -***-                          #
                #########################################################


                         Program Version 6.1.0  -  RELEASE   -
                                (GIT: $679e74b$)
                          ($2025-06-10 18:02:51 +0200$)


 With contributions from (in alphabetic order):
[Max-Planck-Institut fuer Kohlenforschung]                               
  Daniel Aravena         : Magnetic Suceptibility                        
  Michael Atanasov       : Ab Initio Ligand Field Theory (pilot matlab implementation)
  Alexander A. Auer      : GIAO ZORA, VPT2 properties, NMR spectrum      
  Ute Becker             : All parallelization in ORCA, NUMFREQ, NUMCALC 
  Giovanni Bistoni       : ED, misc. LED, open-shell LED, HFLD           
  Dmytro Bykov           : pre 5.0 version of the SCF Hessian            
  Marcos Casanova-Páez   : Triplet and SCS-CIS(D). UHF-(DLPNO)-IP/EA/STEOM-CCSD. UHF-CVS-IP/STEOM-CCSD   
  Vijay G. Chilkuri      : MRCI spin determinant printing, contributions to CSF-ICE 
  Pauline Colinet        : FMM embedding                                 
  Dipayan Datta          : RHF DLPNO-CCSD density                        
  Achintya Kumar Dutta   : EOM-CC, STEOM-CC                              
  Nicolas Foglia         : Exact transition moments, OPA infrastructure, MCD improvements    
  Dmitry Ganyushin       : Spin-Orbit,Spin-Spin,Magnetic field MRCI      
  Miquel Garcia-Rates    : C-PCM and meta-GGA Hessian, CCSD/C-PCM, Gaussian charge scheme 
  Tiago L. C. Gouveia    : GS-ROHF, GS-ROCIS                             
  Yang Guo               : DLPNO-NEVPT2, F12-NEVPT2, CIM, IAO-localization        
  Andreas Hansen         : Spin unrestricted coupled pair/coupled cluster methods 
  Ingolf Harden          : AUTO-CI MPn and infrastructure                
  Benjamin Helmich-Paris : MC-RPA, TRAH-(SCF,CASSCF), AVAS, COSX integrals, SCF dyn. polar., MC-PDFT, srDFT 
  Lee Huntington         : MR-EOM, pCC                                   
  Robert Izsak           : Overlap fitted RIJCOSX, COSX-SCS-MP3, EOM     
  Riya Kayal             : Wick's Theorem for AUTO-CI, AUTO-CI UHF-CCSDT 
  Emily Kempfer          : AUTO-CI RHF CISDT and CCSDT, approximate NEVPT4
  Christian Kollmar      : KDIIS, OOCD, Brueckner-CCSD(T), CCSD density, CASPT2, CASPT2-K, improved NEVPT2 
  Axel Koslowski         : Symmetry handling                             
  Simone Kossmann        : meta-GGA functionals, TD-DFT gradient, OOMP2, (MP2 Hessian; deprecated post 5.0) 
  Lucas Lang             : DCDCAS, Hyperfine gauge corrections, ICE-SOC+SSC
  Marvin Lechner         : AUTO-CI (C++ implementation), FIC-MRCC        
  Spencer Leger          : CASSCF response                               
  Dagmar Lenk            : GEPOL surface, SMD, ORCA-2-JSON               
  Dimitrios Liakos       : Extrapolation schemes; Compound Job, Property file
  Dimitrios Manganas     : Further ROCIS development; embedding schemes. LFT, Crystal Embedding 
  Dimitrios Pantazis     : SARC Basis sets                               
  Anastasios Papadopoulos: AUTO-CI, single reference methods and gradients 
  Taras Petrenko         : pre 6.0 DFT Hessian and TD-DFT gradient,  ECA, NRVS 
  Petra Pikulova         : Analytic Raman intensities                    
  Peter Pinski           : DLPNO-MP2, DLPNO-MP2 Gradient                 
  Shashank Vittal Rao    : ES-AILFT, MagRelax                            
  Christoph Reimann      : Effective Core Potentials                     
  Marius Retegan         : Local ZFS, SOC                                
  Christoph Riplinger    : Optimizer, TS searches, QM/MM, DLPNO-CCSD(T), (RO)-DLPNO pert. Triples 
  Michael Roemelt        : Original ROCIS implementation, recursive CI coupling coefficients
  Masaaki Saitow         : Open-shell DLPNO-CCSD energy and density      
  Barbara Sandhoefer     : DKH picture change effects                    
  Yorick L. A. Schmerwitz: GMF and freeze-and-release deltaSCF, NEB S-IDPP initial path                    
  Kantharuban Sivalingam : CASSCF convergence/infrastructure, NEVPT2, NEVPT3, NEVPT4(SD), FIC-MRCI and CEPA variants
  Bernardo de Souza      : ESD, SOC TD-DFT                               
  Georgi L. Stoychev     : AutoAux, RI-MP2 NMR, DLPNO-MP2 response, X2C  
  Van Anh Tran           : RI-MP2 g-tensors                              
  Willem Van den Heuvel  : Paramagnetic NMR                              
  Zikuan Wang            : NOTCH, Electric field optimization            
  Frank Wennmohs         : Technical directorship and infrastructure     
  Hang Xu                : AUTO-CI-Response properties                   
                                                                         
[FACCTs GmbH]                                                            
  Markus Bursch, Nicolas Foglia, Miquel Garcia-Rates, Ingolf Harden, Hagen Neugebauer, Anastasios Papadopoulos, 
  Christoph Riplinger, Bernardo de Souza, Georgi L. Stoychev                                                    
                                                                 
  APM, various basis sets, CI-OPT, improved COSX, DLPNO-Multilevel,           
  DOCKER, DRACO, updates on ESD, Fragmentator, GOAT, IRC, LR-CPCM, L-BFGS, MBIS, meta-GGA TD-DFT gradient, ML-optimized integration grids, 
  MM, NACMEs, nearIR, NEB, NEB-TS, NL-DFT gradient (VV10), 2- and 3-layer-ONIOM, interface openCOSMO-RS, QMMM,   
  Crystal-QMMM, RESP, rigid body optimization, SF, symmetry and pop. for TD-DFT, various functionals, SOLVATOR                                   
                                                                         
[Other institutions]                                                     
  V. Asgeirsson          : NEB                                           
  Christoph Bannwarth    : sTDA-DFT, sTD-DFT, PBEh-3c, B97-3c, D3        
  Giovanni Bistoni       : ETS/NOCV, ADLD/ADEX, COVALED                  
  Martin Brehm           : Molecular dynamics                            
  Ronald Cardenas        : ETS/NOCV                                      
  Martina Colucci        : COVALED                                       
  Sebastian Ehlert       : rSCAN, r2SCAN, r2SCAN-3c, D4, dhf basis sets  
  Marvin Friede          : D4 for Fr, Ra, Ac-Lr                          
  Lars Goerigk           : TD-DFT with DH, B97 family of functionals     
  Stefan Grimme          : VdW corrections, initial TS optimization, DFT functionals, gCP, sTDA/sTD-DF 
  Waldemar Hujo          : DFT-NL                                        
  H. Jonsson             : NEB                                           
  Holger Kruse           : gCP                                           
  Marcel Mueller         : wB97X-3c, vDZP basis set                      
  Hagen Neugebauer       : wr2SCAN, Native XTB                           
  Gianluca Regni         : ADLD/ADEX                                     
  Tobias Risthaus        : pre 6.0 range-separated hybrid DFT and stability analysis
  Lukas Wittmann         : regularized MP2, r2SCAN double-hybrids, wr2SCAN        
                                                                         
We gratefully acknowledge several colleagues who have allowed us to      
interface, adapt or use parts of their codes:                            
  Ed Valeev, F. Pavosevic, A. Kumar             : LibInt (2-el integral package), F12 methods 
  Garnet Chan, S. Sharma, J. Yang, R. Olivares  : DMRG                   
  Ulf Ekstrom                                   : XCFun DFT Library      
  Mihaly Kallay                                 : mrcc  (arbitrary order and MRCC methods)
  Frank Weinhold                                : gennbo (NPA and NBO analysis)           
  Simon Mueller                                 : openCOSMO-RS                            
  Christopher J. Cramer and Donald G. Truhlar   : smd solvation model                     
  S Lehtola, MJT Oliveira, MAL Marques          : LibXC Library                           
  Liviu Ungur et al                             : ANISO software                          


 Your calculation uses the libint2 library for the computation of 2-el integrals
 For citations please refer to: http://libint.valeyev.net

 Your ORCA version has been built with support for libXC version: 7.0.0
 For citations please refer to: https://libxc.gitlab.io

 This ORCA versions uses:
   CBLAS   interface :  Fast vector & matrix operations
   LAPACKE interface :  Fast linear algebra routines
   SCALAPACK package :  Parallel linear algebra routines
   Shared memory     :  Shared parallel matrices
   BLAS/LAPACK       :  OpenBLAS 0.3.29  USE64BITINT DYNAMIC_ARCH NO_AFFINITY Zen SINGLE_THREADED
        Core in use  :  Zen
   Copyright (c) 2011-2014, The OpenBLAS Project


  ***********************************
  * Starting time: Wed Sep 10 13:34:53 2025
  * Host name:     wyk-Server
  * Process ID:    2286198
  * Working dir.:  /home/wyk/Documents/code/openQDC/MGMR/singlepointcalc/45/react
  ***********************************

Your calculation utilizes the atom-pairwise dispersion correction
with the Becke-Johnson damping scheme (D3BJ)


Warning: RI is on but no J-basis has been assigned. Assigning Def2/J (nothing to worry about!)
================================================================================

----- Orbital basis set information -----
Your calculation utilizes the basis: def2-SVP
   F. Weigend and R. Ahlrichs, Phys. Chem. Chem. Phys. 7, 3297 (2005).

----- AuxJ basis set information -----
Your calculation utilizes the auxiliary basis: def2/J
   H-Rn: F. Weigend, Phys. Chem. Chem. Phys. 8, 1057 (2006).
   Fr-Lr: K. Eichkorn, F. Weigend, O. Treutler, R. Ahlrichs; Theor. Chem. Acc. 97, 119 (1997).

================================================================================
                                        WARNINGS
                       Please study these warnings very carefully!
================================================================================


================================================================================
                                       INPUT FILE
================================================================================
NAME = orca.inp
|  1> ! B3LYP def2-SVP d3 EnGrad 
|  2> %pal nprocs 6 end 
|  3> *xyz 0 1 
|  4> C   1.83945643409847 0.39613536300878 -0.15975053037652
|  5> C   0.45337936835536 0.91118630256385 0.09216479568113
|  6> C   -0.69108898485499 0.2075493899077 0.07229935391829
|  7> C   -0.87285462891165 -1.2575398963602 -0.17204474211443
|  8> O   -1.91330091729381 0.80622049265855 0.30195833998646
|  9> H   2.29827554841339 0.88904732190197 -1.03566471956331
| 10> H   1.85775142267028 -0.68733446196324 -0.34568905413405
| 11> H   2.5063820346229 0.59751331530235 0.69732113860113
| 12> H   0.08367537301455 -1.78679178447205 -0.25261828717007
| 13> H   -1.44898266698688 -1.41811955905276 -1.09912481260306
| 14> H   -1.46681708524288 -1.6828110440187 0.65253153502651
| 15> H   -1.78552143702666 1.75871241460693 0.41722004028539
| 16> H   0.37232253135048 1.98728693855676 0.30310912453448
| 17> H   -2.8345346195475 -0.24801124831881 1.68379543692597
| 18> O   -2.95789081483578 -0.92844154374678 2.36815762283002
| 19> H   -2.20153355782524 -0.77997200057437 2.95187275817202
| 20> *
| 21> 
| 22>                          ****END OF INPUT****
================================================================================

                     *******************************
                     * Energy+Gradient Calculation *
                     *******************************

---------------------------------
CARTESIAN COORDINATES (ANGSTROEM)
---------------------------------
  C      1.839456    0.396135   -0.159751
  C      0.453379    0.911186    0.092165
  C     -0.691089    0.207549    0.072299
  C     -0.872855   -1.257540   -0.172045
  O     -1.913301    0.806220    0.301958
  H      2.298276    0.889047   -1.035665
  H      1.857751   -0.687334   -0.345689
  H      2.506382    0.597513    0.697321
  H      0.083675   -1.786792   -0.252618
  H     -1.448983   -1.418120   -1.099125
  H     -1.466817   -1.682811    0.652532
  H     -1.785521    1.758712    0.417220
  H      0.372323    1.987287    0.303109
  H     -2.834535   -0.248011    1.683795
  O     -2.957891   -0.928442    2.368158
  H     -2.201534   -0.779972    2.951873

----------------------------
CARTESIAN COORDINATES (A.U.)
----------------------------
  NO LB      ZA    FRAG     MASS         X           Y           Z
   0 C     6.0000    0    12.011    3.476069    0.748587   -0.301885
   1 C     6.0000    0    12.011    0.856763    1.721893    0.174166
   2 C     6.0000    0    12.011   -1.305969    0.392212    0.136626
   3 C     6.0000    0    12.011   -1.649456   -2.376406   -0.325117
   4 O     8.0000    0    15.999   -3.615615    1.523536    0.570619
   5 H     1.0000    0     1.008    4.343111    1.680056   -1.957123
   6 H     1.0000    0     1.008    3.510641   -1.298874   -0.653258
   7 H     1.0000    0     1.008    4.736376    1.129137    1.317746
   8 H     1.0000    0     1.008    0.158124   -3.376547   -0.477379
   9 H     1.0000    0     1.008   -2.738180   -2.679858   -2.077045
  10 H     1.0000    0     1.008   -2.771883   -3.180052    1.233106
  11 H     1.0000    0     1.008   -3.374147    3.323485    0.788432
  12 H     1.0000    0     1.008    0.703588    3.755428    0.572793
  13 H     1.0000    0     1.008   -5.356494   -0.468673    3.181912
  14 O     8.0000    0    15.999   -5.589604   -1.754500    4.475169
  15 H     1.0000    0     1.008   -4.160295   -1.473933    5.578231

--------------------------------
INTERNAL COORDINATES (ANGSTROEM)
--------------------------------
 C      0   0   0     0.000000000000     0.00000000     0.00000000
 C      1   0   0     1.499982811241     0.00000000     0.00000000
 C      2   1   0     1.343617264004   127.21418226     0.00000000
 C      3   2   1     1.496405494297   128.21451824     1.51956406
 O      3   2   1     1.380200111196   121.64579892   181.02899248
 H      1   2   3     1.104854219207   111.32736953   118.64941091
 H      1   2   3     1.099461096560   112.46729131   358.09127163
 H      1   2   3     1.104497479431   111.41038531   237.30372922
 H      4   3   2     1.096152043203   112.25497763     5.65467469
 H      4   3   2     1.103261891585   110.06871047   244.20175360
 H      4   3   2     1.101622887101   108.73741259   127.37230543
 H      5   3   2     0.967912039655   109.25403773     3.02988942
 H      2   1   3     1.099572780440   115.87308657   180.84227140
 H      5   3   2     1.967117144537   107.40565550   230.90770578
 O     14   5   3     0.972909933831   158.17471361     7.48692097
 H     15  14   5     0.966872724152   102.59656961    51.26911593

---------------------------
INTERNAL COORDINATES (A.U.)
---------------------------
 C      0   0   0     0.000000000000     0.00000000     0.00000000
 C      1   0   0     2.834556718835     0.00000000     0.00000000
 C      2   1   0     2.539068657776   127.21418226     0.00000000
 C      3   2   1     2.827796569516   128.21451824     1.51956406
 O      3   2   1     2.608200220169   121.64579892   181.02899248
 H      1   2   3     2.087871892209   111.32736953   118.64941091
 H      1   2   3     2.077680367399   112.46729131   358.09127163
 H      1   2   3     2.087197751731   111.41038531   237.30372922
 H      4   3   2     2.071427162792   112.25497763     5.65467469
 H      4   3   2     2.084862829088   110.06871047   244.20175360
 H      4   3   2     2.081765559481   108.73741259   127.37230543
 H      5   3   2     1.829088676674   109.25403773     3.02988942
 H      2   1   3     2.077891419346   115.87308657   180.84227140
 H      5   3   2     3.717312676516   107.40565550   230.90770578
 O     14   5   3     1.838533327913   158.17471361     7.48692097
 H     15  14   5     1.827124655006   102.59656961    51.26911593

---------------------
BASIS SET INFORMATION
---------------------
There are 3 groups of distinct atoms

 Group   1 Type C   : 7s4p1d contracted to 3s2p1d pattern {511/31/1}
 Group   2 Type O   : 7s4p1d contracted to 3s2p1d pattern {511/31/1}
 Group   3 Type H   : 4s1p contracted to 2s1p pattern {31/1}

Atom   0C    basis set group =>   1
Atom   1C    basis set group =>   1
Atom   2C    basis set group =>   1
Atom   3C    basis set group =>   1
Atom   4O    basis set group =>   2
Atom   5H    basis set group =>   3
Atom   6H    basis set group =>   3
Atom   7H    basis set group =>   3
Atom   8H    basis set group =>   3
Atom   9H    basis set group =>   3
Atom  10H    basis set group =>   3
Atom  11H    basis set group =>   3
Atom  12H    basis set group =>   3
Atom  13H    basis set group =>   3
Atom  14O    basis set group =>   2
Atom  15H    basis set group =>   3
---------------------------------
AUXILIARY/J BASIS SET INFORMATION
---------------------------------
There are 3 groups of distinct atoms

 Group   1 Type C   : 12s5p4d2f1g contracted to 6s4p3d1f1g pattern {711111/2111/211/2/1}
 Group   2 Type O   : 12s5p4d2f1g contracted to 6s4p3d1f1g pattern {711111/2111/211/2/1}
 Group   3 Type H   : 5s2p1d contracted to 3s1p1d pattern {311/2/1}

Atom   0C    basis set group =>   1
Atom   1C    basis set group =>   1
Atom   2C    basis set group =>   1
Atom   3C    basis set group =>   1
Atom   4O    basis set group =>   2
Atom   5H    basis set group =>   3
Atom   6H    basis set group =>   3
Atom   7H    basis set group =>   3
Atom   8H    basis set group =>   3
Atom   9H    basis set group =>   3
Atom  10H    basis set group =>   3
Atom  11H    basis set group =>   3
Atom  12H    basis set group =>   3
Atom  13H    basis set group =>   3
Atom  14O    basis set group =>   2
Atom  15H    basis set group =>   3


           ************************************************************
           *        Program running with 6 parallel MPI-processes     *
           *              working on a common directory               *
           ************************************************************
------------------------------------------------------------------------------
                             ORCA STARTUP CALCULATIONS
                           -- RI-GTO INTEGRALS CHOSEN --
------------------------------------------------------------------------------
------------------------------------------------------------------------------
                   ___                                                        
                  /   \      - P O W E R E D   B Y -                         
                 /     \                                                     
                 |  |  |   _    _      __       _____    __    __             
                 |  |  |  | |  | |    /  \     |  _  \  |  |  /  |          
                  \  \/   | |  | |   /    \    | | | |  |  | /  /          
                 / \  \   | |__| |  /  /\  \   | |_| |  |  |/  /          
                |  |  |   |  __  | /  /__\  \  |    /   |      \           
                |  |  |   | |  | | |   __   |  |    \   |  |\   \          
                \     /   | |  | | |  |  |  |  | |\  \  |  | \   \       
                 \___/    |_|  |_| |__|  |__|  |_| \__\ |__|  \__/        
                                                                              
                      - O R C A' S   B I G   F R I E N D -                    
                                      &                                       
                       - I N T E G R A L  F E E D E R -                       
                                                                              
 v1 FN, 2020, v2 2021, v3 2022-2024                                           
------------------------------------------------------------------------------


----------------------
SHARK INTEGRAL PACKAGE
----------------------

Number of atoms                             ...     16
Number of basis functions                   ...    134
Number of shells                            ...     66
Maximum angular momentum                    ...      2
Integral batch strategy                     ... SHARK/LIBINT Hybrid
RI-J (if used) integral strategy            ... SPLIT-RIJ (Revised 2003 algorithm where possible)
Printlevel                                  ...      1
Contraction scheme used                     ... SEGMENTED contraction
Prescreening option                         ... SCHWARTZ
   Thresh                                   ... 2.500e-11
   Tcut                                     ... 2.500e-12
   Tpresel                                  ... 2.500e-12 
Coulomb Range Separation                    ... NOT USED
Exchange Range Separation                   ... NOT USED
Multipole approximations                    ... NOT USED
Finite Nucleus Model                        ... NOT USED
CABS basis                                  ... NOT available
Auxiliary Coulomb fitting basis             ... AVAILABLE
   # of basis functions in Aux-J            ...    404
   # of shells in Aux-J                     ...    140
   Maximum angular momentum in Aux-J        ...      4
Auxiliary J/K fitting basis                 ... NOT available
Auxiliary Correlation fitting basis         ... NOT available
Auxiliary 'external' fitting basis          ... NOT available

Checking pre-screening integrals            ... done (  0.0 sec) Dimension = 66
   => SHARK Basis and OBASIS are compatible. Storing Pre-screening
Shell pair information
Shell pair cut-off parameter TPreSel        ...   2.5e-12
Total number of shell pairs                 ...      2211
Shell pairs after pre-screening             ...      2084
Total number of primitive shell pairs       ...      7611
Primitive shell pairs kept                  ...      5405
          la=0 lb=0:    708 shell pairs
          la=1 lb=0:    789 shell pairs
          la=1 lb=1:    235 shell pairs
          la=2 lb=0:    212 shell pairs
          la=2 lb=1:    121 shell pairs
          la=2 lb=2:     19 shell pairs

Checking whether 4 symmetric matrices of dimension 134 fit in memory
:Max Core in MB      =   4096.00
 MB in use           =      5.95
 MB left             =   4090.05
 MB needed           =      0.28
 Data fit in memory  = YES
Calculating RI/J V-Matrix + Cholesky decomp.... done (  0.0 sec)
Calculating Nuclear repulsion               ... done (  0.0 sec) ENN=    241.824435463145 Eh

Diagonalization of the overlap matrix:
Smallest eigenvalue                        ... 1.368e-03
Time for diagonalization                   ...    0.003 sec
Threshold for overlap eigenvalues          ... 1.000e-07
Number of eigenvalues below threshold      ... 0
Time for construction of square roots      ...    0.001 sec
Total time needed                          ...    0.005 sec

-------------------
DFT GRID GENERATION
-------------------

General Integration Accuracy     IntAcc      ... 4.388
Radial Grid Type                 RadialGrid  ... OptM3 with GC (2021)
Angular Grid (max. ang.)         AngularGrid ... 4 (Lebedev-302)
Angular grid pruning method      GridPruning ... 4 (adaptive)
Weight generation scheme         WeightScheme... mBecke (2022)
Basis function cutoff            BFCut       ... 1.0000e-11
Integration weight cutoff        WCut        ... 1.0000e-14
Partially contracted basis set               ... off
Rotationally invariant grid construction     ... off
Angular grids for H and He will be reduced by one unit

Total number of grid points                  ...    68622
Total number of batches                      ...     1081
Average number of points per batch           ...       63
Average number of grid points per atom       ...     4289

--------------------
COSX GRID GENERATION
--------------------

GRIDX 1
-------
General Integration Accuracy     IntAcc      ... 3.816
Radial Grid Type                 RadialGrid  ... OptM3 with GC (2021)
Angular Grid (max. ang.)         AngularGrid ... 1 (Lebedev-50)
Angular grid pruning method      GridPruning ... 4 (adaptive)
Weight generation scheme         WeightScheme... mBecke (2022)
Basis function cutoff            BFCut       ... 1.0000e-11
Integration weight cutoff        WCut        ... 1.0000e-14
Partially contracted basis set               ... on
Rotationally invariant grid construction     ... off
Angular grids for H and He will be reduced by one unit

Total number of grid points                  ...     8836
Total number of batches                      ...       78
Average number of points per batch           ...      113
Average number of grid points per atom       ...      552
UseSFitting                                  ... on

GRIDX 2
-------
General Integration Accuracy     IntAcc      ... 4.020
Radial Grid Type                 RadialGrid  ... OptM3 with GC (2021)
Angular Grid (max. ang.)         AngularGrid ... 2 (Lebedev-110)
Angular grid pruning method      GridPruning ... 4 (adaptive)
Weight generation scheme         WeightScheme... mBecke (2022)
Basis function cutoff            BFCut       ... 1.0000e-11
Integration weight cutoff        WCut        ... 1.0000e-14
Partially contracted basis set               ... on
Rotationally invariant grid construction     ... off
Angular grids for H and He will be reduced by one unit

Total number of grid points                  ...    18569
Total number of batches                      ...      153
Average number of points per batch           ...      121
Average number of grid points per atom       ...     1161
UseSFitting                                  ... on

GRIDX 3
-------
General Integration Accuracy     IntAcc      ... 4.338
Radial Grid Type                 RadialGrid  ... OptM3 with GC (2021)
Angular Grid (max. ang.)         AngularGrid ... 3 (Lebedev-194)
Angular grid pruning method      GridPruning ... 4 (adaptive)
Weight generation scheme         WeightScheme... mBecke (2022)
Basis function cutoff            BFCut       ... 1.0000e-11
Integration weight cutoff        WCut        ... 1.0000e-14
Partially contracted basis set               ... on
Rotationally invariant grid construction     ... off
Angular grids for H and He will be reduced by one unit

Total number of grid points                  ...    40617
Total number of batches                      ...      325
Average number of points per batch           ...      124
Average number of grid points per atom       ...     2539
UseSFitting                                  ... on
Grids setup in   1.0 sec
Initializing property integral containers    ... done (  0.0 sec)

SHARK setup successfully completed in   1.1 seconds

Maximum memory used throughout the entire STARTUP-calculation: 18.6 MB


           ************************************************************
           *        Program running with 6 parallel MPI-processes     *
           *              working on a common directory               *
           ************************************************************
-------------------------------------------------------------------------------
                                 ORCA GUESS
                   Start orbitals & Density for SCF / CASSCF
-------------------------------------------------------------------------------

------------
SCF SETTINGS
------------
Hamiltonian:
 Density Functional     Method          .... DFT(GTOs)
 Exchange Functional    Exchange        .... B88
   X-Alpha parameter    XAlpha          ....  0.666667
   Becke's b parameter  XBeta           ....  0.004200
 Correlation Functional Correlation     .... LYP
 LDA part of GGA corr.  LDAOpt          .... VWN-5
 Gradients option       PostSCFGGA      .... off
 Hybrid DFT is turned on
   Fraction HF Exchange ScalHFX         ....  0.200000
   Scaling of DF-GGA-X  ScalDFX         ....  0.720000
   Scaling of DF-GGA-C  ScalDFC         ....  0.810000
   Scaling of DF-LDA-C  ScalLDAC        ....  1.000000
   Perturbative correction              ....  0.000000
   NL short-range parameter             ....  4.800000
 RI-approximation to the Coulomb term is turned on
   Number of AuxJ basis functions       .... 404
   RIJ-COSX (HFX calculated with COS-X)).... on


General Settings:
 Integral files         IntName         .... orca
 Hartree-Fock type      HFTyp           .... RHF
 Total Charge           Charge          ....    0
 Multiplicity           Mult            ....    1
 Number of Electrons    NEL             ....   50
 Basis Dimension        Dim             ....  134
 Nuclear Repulsion      ENuc            ....    241.8244354631 Eh

Convergence Acceleration:
 AO-DIIS                CNVDIIS         .... on
   Start iteration      DIISMaxIt       ....    12
   Startup error        DIISStart       ....  0.200000
   # of expansion vecs  DIISMaxEq       ....     5
   Bias factor          DIISBfac        ....   1.050
   Max. coefficient     DIISMaxC        ....  10.000
 MO-DIIS                CNVKDIIS        .... off
 Trust-Rad. Augm. Hess. CNVTRAH         .... auto
   Auto Start mean grad. ratio tolernc. ....  1.125000
   Auto Start start iteration           ....    50
   Auto Start num. interpolation iter.  ....    10
   Max. Number of Micro iterations      ....    24
   Max. Number of Macro iterations      .... Maxiter - #DIIS iter
   Number of Davidson start vectors     ....     2
   Converg. threshold    (grad. norm)   ....   1.000e-05
   Grad. Scal. Fac. for Micro threshold ....   0.100
   Minimum threshold for Micro iter.    ....   1.000e-02
   NR start threshold (gradient norm)   ....   1.000e-04
   Initial trust radius                 ....   0.400
   Minimum AH scaling param. (alpha)    ....   1.000
   Maximum AH scaling param. (alpha)    .... 1000.000
   Quad. conv. algorithm                .... NR
   White noise on init. David. guess    .... on
   Maximum white noise                  ....   0.010
   Pseudo random numbers                .... off
   Inactive MOs                         .... canonical
   Orbital update algorithm             .... Taylor
   Preconditioner                       .... Diag
   Full preconditioner red. dimension   ....   250
 SOSCF                 CNVSOSCF           .... on
   Start iteration     SOSCFMaxIt         ....   150
   Startup grad/error  SOSCFStart         ....  0.003300
   Hessian update      SOSCFHessUp        .... L-BFGS
   Autom. constraints  SOSCFAutoConstrain .... off
 Level Shifting         CNVShift        .... on
   Level shift para.    LevelShift      ....    0.2500
   Turn off err/grad.   ShiftErr        ....    0.0010
 Zerner damping         CNVZerner       .... off
 Static damping         CNVDamp         .... on
   Fraction old density DampFac         ....    0.7000
   Max. Damping (<1)    DampMax         ....    0.9800
   Min. Damping (>=0)   DampMin         ....    0.0000
   Turn off err/grad.   DampErr         ....    0.1000

SCF Procedure:
 Maximum # iterations   MaxIter         ....   125
 SCF integral mode      SCFMode         .... Direct
   Integral package                     .... SHARK and LIBINT hybrid scheme
 Reset frequency        DirectResetFreq ....    20
 Integral Threshold     Thresh          ....  2.500e-11 Eh
 Primitive CutOff       TCut            ....  2.500e-12 Eh

Convergence Tolerance:
 Convergence Check Mode ConvCheckMode   .... Total+1el-Energy
 Convergence forced     ConvForced      .... 0
 Energy Change          TolE            ....  1.000e-08 Eh
 1-El. energy change                    ....  1.000e-05 Eh
 Orbital Gradient       TolG            ....  1.000e-05
 Orbital Rotation angle TolX            ....  1.000e-05
 DIIS Error             TolErr          ....  5.000e-07

------------------------------
INITIAL GUESS: MODEL POTENTIAL
------------------------------
Loading Hartree-Fock densities                     ... done
Calculating cut-offs                               ... done
Initializing the effective Hamiltonian             ... done
Setting up the integral package (SHARK)            ... done
Starting the Coulomb interaction                   ... done (   0.0 sec)
Making the grid                                    ... done (   0.1 sec)
Mapping shells                                     ... done
Starting the XC term evaluation                    ... done (   0.0 sec)
  promolecular density results
     # of electrons  =     49.993545286
     EX              =    -39.904583589
     EC              =     -1.651684887
     EX+EC           =    -41.556268476
Transforming the Hamiltonian                       ... done (   0.0 sec)
Diagonalizing the Hamiltonian                      ... done (   0.0 sec)
Back transforming the eigenvectors                 ... done (   0.0 sec)
Now organizing SCF variables                       ... done
                      ------------------
                      INITIAL GUESS DONE (   0.2 sec)
                      ------------------
             **** ENERGY FILE WAS UPDATED (orca.en.tmp) ****
Finished Guess after   0.3 sec
Maximum memory used throughout the entire GUESS-calculation: 8.5 MB


           ************************************************************
           *        Program running with 6 parallel MPI-processes     *
           *              working on a common directory               *
           ************************************************************

-------------------------------------------------------------------------------------------
                                      ORCA LEAN-SCF
                              memory conserving SCF solver
-------------------------------------------------------------------------------------------

----------------------------------------D-I-I-S--------------------------------------------
Iteration    Energy (Eh)           Delta-E    RMSDP     MaxDP     DIISErr   Damp  Time(sec)
-------------------------------------------------------------------------------------------
               ***  Starting incremental Fock matrix formation  ***
    1    -308.2023520576258306     0.00e+00  1.03e-02  8.60e-02  3.00e-01  0.700   0.8
    2    -308.3271302716143509    -1.25e-01  6.79e-03  4.81e-02  1.24e-01  0.700   0.5
                               ***Turning on AO-DIIS***
    3    -308.3750081209788050    -4.79e-02  2.47e-03  1.81e-02  3.78e-02  0.700   0.5
    4    -308.4033244518228685    -2.83e-02  3.91e-03  2.61e-02  1.98e-02  0.000   0.5
    5    -308.4657538317494527    -6.24e-02  8.38e-04  5.70e-03  7.27e-03  0.000   0.4
                              *** Initializing SOSCF ***
---------------------------------------S-O-S-C-F--------------------------------------
Iteration    Energy (Eh)           Delta-E    RMSDP     MaxDP     MaxGrad    Time(sec)
--------------------------------------------------------------------------------------
    6    -308.4660610144393331    -3.07e-04  3.04e-04  2.22e-03  2.63e-03     0.4
               *** Restarting incremental Fock matrix formation ***
    7    -308.4660332713870048     2.77e-05  2.04e-04  1.26e-03  2.26e-04     0.8
    8    -308.4660317335353739     1.54e-06  9.06e-05  9.62e-04  6.92e-04     0.6
    9    -308.4660362538202207    -4.52e-06  4.65e-05  4.15e-04  1.25e-04     0.6
   10    -308.4660361788006639     7.50e-08  2.28e-05  2.07e-04  9.11e-05     0.6
   11    -308.4660364443849403    -2.66e-07  2.62e-06  2.85e-05  5.55e-06     0.5
   12    -308.4660364444898732    -1.05e-10  1.37e-06  1.49e-05  8.17e-06     0.4
                 **** Energy Check signals convergence ****

               *****************************************************
               *                     SUCCESS                       *
               *           SCF CONVERGED AFTER  12 CYCLES          *
               *****************************************************

Recomputing exchange energy using gridx3       ... done (    1.114 sec)
Old exchange energy                            :     -8.134883729 Eh
New exchange energy                            :     -8.134879504 Eh
Exchange energy change after final integration :      0.000004225 Eh
Total energy after final integration           :   -308.466032222 Eh
             **** ENERGY FILE WAS UPDATED (orca.en.tmp) ****

----------------
TOTAL SCF ENERGY
----------------

Total Energy       :       -308.46603222197456 Eh           -8393.78747 eV

Components:
Nuclear Repulsion  :        241.82443546314508 Eh            6580.37743 eV
Electronic Energy  :       -550.29047191011182 Eh          -14974.16501 eV
One Electron Energy:       -898.33304425895028 Eh          -24444.88489 eV
Two Electron Energy:        348.04257234883841 Eh            9470.71988 eV

Virial components:
Potential Energy   :       -614.03330155157118 Eh          -16708.69559 eV
Kinetic Energy     :        305.56726932959668 Eh            8314.90812 eV
Virial Ratio       :          2.00948649670083

DFT components:
N(Alpha)           :       24.999992180506 electrons
N(Beta)            :       24.999992180506 electrons
N(Total)           :       49.999984361011 electrons
E(X)               :      -32.307783057104 Eh       
E(C)               :       -1.960690083975 Eh       
E(XC)              :      -34.268473141079 Eh       

---------------
SCF CONVERGENCE
---------------

  Last Energy change         ...    1.0493e-10  Tolerance :   1.0000e-08
  Last MAX-Density change    ...    1.4862e-05  Tolerance :   1.0000e-07
  Last RMS-Density change    ...    1.3685e-06  Tolerance :   5.0000e-09
  Last DIIS Error            ...    2.6334e-03  Tolerance :   5.0000e-07
  Last Orbital Gradient      ...    8.1652e-06  Tolerance :   1.0000e-05
  Last Orbital Rotation      ...    7.0657e-06  Tolerance :   1.0000e-05


----------------
ORBITAL ENERGIES
----------------

  NO   OCC          E(Eh)            E(eV) 
   0   2.0000     -19.169650      -521.6327 
   1   2.0000     -19.102519      -519.8060 
   2   2.0000     -10.244265      -278.7606 
   3   2.0000     -10.187900      -277.2269 
   4   2.0000     -10.182295      -277.0743 
   5   2.0000     -10.178635      -276.9747 
   6   2.0000      -1.050174       -28.5767 
   7   2.0000      -0.961258       -26.1572 
   8   2.0000      -0.783856       -21.3298 
   9   2.0000      -0.722232       -19.6529 
  10   2.0000      -0.650833       -17.7101 
  11   2.0000      -0.584437       -15.9033 
  12   2.0000      -0.500660       -13.6237 
  13   2.0000      -0.493568       -13.4307 
  14   2.0000      -0.449649       -12.2356 
  15   2.0000      -0.437049       -11.8927 
  16   2.0000      -0.406714       -11.0672 
  17   2.0000      -0.403988       -10.9931 
  18   2.0000      -0.386642       -10.5211 
  19   2.0000      -0.376079       -10.2336 
  20   2.0000      -0.364269        -9.9123 
  21   2.0000      -0.355307        -9.6684 
  22   2.0000      -0.344587        -9.3767 
  23   2.0000      -0.276762        -7.5311 
  24   2.0000      -0.223935        -6.0936 
  25   0.0000       0.032068         0.8726 
  26   0.0000       0.040836         1.1112 
  27   0.0000       0.068258         1.8574 
  28   0.0000       0.077251         2.1021 
  29   0.0000       0.094433         2.5697 
  30   0.0000       0.116442         3.1686 
  31   0.0000       0.134576         3.6620 
  32   0.0000       0.142128         3.8675 
  33   0.0000       0.186320         5.0700 
  34   0.0000       0.193002         5.2518 
  35   0.0000       0.195348         5.3157 
*Only the first 10 virtual orbitals were printed.

                    ********************************
                    * MULLIKEN POPULATION ANALYSIS *
                    ********************************

-----------------------
MULLIKEN ATOMIC CHARGES
-----------------------
   0 C :    0.075051
   1 C :   -0.152453
   2 C :   -0.013433
   3 C :    0.092102
   4 O :   -0.238688
   5 H :    0.018801
   6 H :    0.006758
   7 H :    0.016779
   8 H :    0.005543
   9 H :    0.028260
  10 H :    0.010616
  11 H :    0.175878
  12 H :   -0.032626
  13 H :    0.152247
  14 O :   -0.290017
  15 H :    0.145183
Sum of atomic charges:   -0.0000000

--------------------------------
MULLIKEN REDUCED ORBITAL CHARGES
--------------------------------
  0 C s       :     2.933778  s :     2.933778
      pz      :     0.996719  p :     2.961293
      px      :     0.975376
      py      :     0.989198
      dz2     :     0.004722  d :     0.029878
      dxz     :     0.009717
      dyz     :     0.003283
      dx2y2   :     0.008051
      dxy     :     0.004105

  1 C s       :     3.151258  s :     3.151258
      pz      :     1.120296  p :     2.968420
      px      :     0.964582
      py      :     0.883542
      dz2     :     0.002527  d :     0.032775
      dxz     :     0.007769
      dyz     :     0.002166
      dx2y2   :     0.011378
      dxy     :     0.008935

  2 C s       :     3.098718  s :     3.098718
      pz      :     0.994230  p :     2.840619
      px      :     0.804025
      py      :     1.042363
      dz2     :     0.005753  d :     0.074097
      dxz     :     0.016921
      dyz     :     0.007610
      dx2y2   :     0.020919
      dxy     :     0.022894

  3 C s       :     2.913974  s :     2.913974
      pz      :     1.034666  p :     2.966896
      px      :     0.982928
      py      :     0.949302
      dz2     :     0.005322  d :     0.027029
      dxz     :     0.006188
      dyz     :     0.004357
      dx2y2   :     0.006444
      dxy     :     0.004718

  4 O s       :     3.696160  s :     3.696160
      pz      :     1.814141  p :     4.529494
      px      :     1.483378
      py      :     1.231975
      dz2     :     0.001914  d :     0.013034
      dxz     :     0.002405
      dyz     :     0.000496
      dx2y2   :     0.005450
      dxy     :     0.002769

  5 H s       :     0.958001  s :     0.958001
      pz      :     0.010840  p :     0.023198
      px      :     0.005757
      py      :     0.006601

  6 H s       :     0.969686  s :     0.969686
      pz      :     0.005358  p :     0.023556
      px      :     0.004349
      py      :     0.013848

  7 H s       :     0.960052  s :     0.960052
      pz      :     0.010455  p :     0.023170
      px      :     0.007491
      py      :     0.005223

  8 H s       :     0.970970  s :     0.970970
      pz      :     0.004998  p :     0.023486
      px      :     0.012108
      py      :     0.006381

  9 H s       :     0.948211  s :     0.948211
      pz      :     0.011613  p :     0.023529
      px      :     0.007596
      py      :     0.004319

 10 H s       :     0.964123  s :     0.964123
      pz      :     0.011110  p :     0.025261
      px      :     0.008447
      py      :     0.005704

 11 H s       :     0.756743  s :     0.756743
      pz      :     0.017457  p :     0.067379
      px      :     0.014198
      py      :     0.035724

 12 H s       :     1.009609  s :     1.009609
      pz      :     0.005854  p :     0.023017
      px      :     0.003530
      py      :     0.013633

 13 H s       :     0.775550  s :     0.775550
      pz      :     0.029226  p :     0.072203
      px      :     0.016697
      py      :     0.026280

 14 O s       :     3.681258  s :     3.681258
      pz      :     1.403496  p :     4.598214
      px      :     1.559440
      py      :     1.635278
      dz2     :     0.000165  d :     0.010545
      dxz     :     0.002879
      dyz     :     0.002991
      dx2y2   :     0.002933
      dxy     :     0.001577

 15 H s       :     0.783862  s :     0.783862
      pz      :     0.024660  p :     0.070956
      px      :     0.028146
      py      :     0.018150



                     *******************************
                     * LOEWDIN POPULATION ANALYSIS *
                     *******************************

----------------------
LOEWDIN ATOMIC CHARGES
----------------------
   0 C :   -0.050719
   1 C :   -0.128126
   2 C :    0.035331
   3 C :   -0.057954
   4 O :   -0.061761
   5 H :    0.029746
   6 H :    0.025912
   7 H :    0.028847
   8 H :    0.029304
   9 H :    0.039096
  10 H :    0.030345
  11 H :    0.089932
  12 H :    0.015233
  13 H :    0.048939
  14 O :   -0.144826
  15 H :    0.070702

-------------------------------
LOEWDIN REDUCED ORBITAL CHARGES
-------------------------------
  0 C s       :     2.832055  s :     2.832055
      pz      :     1.060454  p :     3.143161
      px      :     1.022524
      py      :     1.060182
      dz2     :     0.012086  d :     0.075503
      dxz     :     0.024446
      dyz     :     0.008004
      dx2y2   :     0.020806
      dxy     :     0.010161

  1 C s       :     2.870586  s :     2.870586
      pz      :     1.094200  p :     3.172636
      px      :     1.046610
      py      :     1.031826
      dz2     :     0.006065  d :     0.084904
      dxz     :     0.015044
      dyz     :     0.004483
      dx2y2   :     0.033085
      dxy     :     0.026227

  2 C s       :     2.861354  s :     2.861354
      pz      :     0.973480  p :     2.938254
      px      :     0.940199
      py      :     1.024574
      dz2     :     0.011750  d :     0.165060
      dxz     :     0.035713
      dyz     :     0.013934
      dx2y2   :     0.052211
      dxy     :     0.051453

  3 C s       :     2.833884  s :     2.833884
      pz      :     1.076263  p :     3.153314
      px      :     1.061246
      py      :     1.015804
      dz2     :     0.013848  d :     0.070757
      dxz     :     0.015546
      dyz     :     0.010795
      dx2y2   :     0.017809
      dxy     :     0.012759

  4 O s       :     3.422207  s :     3.422207
      pz      :     1.775518  p :     4.613936
      px      :     1.521903
      py      :     1.316515
      dz2     :     0.003737  d :     0.025617
      dxz     :     0.003592
      dyz     :     0.000916
      dx2y2   :     0.011646
      dxy     :     0.005724

  5 H s       :     0.906867  s :     0.906867
      pz      :     0.029580  p :     0.063387
      px      :     0.016495
      py      :     0.017313

  6 H s       :     0.909399  s :     0.909399
      pz      :     0.013057  p :     0.064689
      px      :     0.012090
      py      :     0.039542

  7 H s       :     0.907826  s :     0.907826
      pz      :     0.028722  p :     0.063327
      px      :     0.021713
      py      :     0.012891

  8 H s       :     0.904795  s :     0.904795
      pz      :     0.013038  p :     0.065901
      px      :     0.034223
      py      :     0.018640

  9 H s       :     0.895926  s :     0.895926
      pz      :     0.032131  p :     0.064978
      px      :     0.020093
      py      :     0.012753

 10 H s       :     0.898167  s :     0.898167
      pz      :     0.032045  p :     0.071489
      px      :     0.022830
      py      :     0.016613

 11 H s       :     0.735292  s :     0.735292
      pz      :     0.047797  p :     0.174776
      px      :     0.036003
      py      :     0.090977

 12 H s       :     0.916626  s :     0.916626
      pz      :     0.018762  p :     0.068141
      px      :     0.010955
      py      :     0.038425

 13 H s       :     0.760579  s :     0.760579
      pz      :     0.069695  p :     0.190483
      px      :     0.041853
      py      :     0.078934

 14 O s       :     3.435202  s :     3.435202
      pz      :     1.435978  p :     4.690382
      px      :     1.596897
      py      :     1.657507
      dz2     :     0.000205  d :     0.019242
      dxz     :     0.006394
      dyz     :     0.006419
      dx2y2   :     0.004720
      dxy     :     0.001504

 15 H s       :     0.753111  s :     0.753111
      pz      :     0.055226  p :     0.176187
      px      :     0.075929
      py      :     0.045032



                      *****************************
                      * MAYER POPULATION ANALYSIS *
                      *****************************

  NA   - Mulliken gross atomic population
  ZA   - Total nuclear charge
  QA   - Mulliken gross atomic charge
  VA   - Mayer's total valence
  BVA  - Mayer's bonded valence
  FA   - Mayer's free valence

  ATOM       NA         ZA         QA         VA         BVA        FA
  0 C      5.9249     6.0000     0.0751     3.9616     3.9616     0.0000
  1 C      6.1525     6.0000    -0.1525     3.9690     3.9690    -0.0000
  2 C      6.0134     6.0000    -0.0134     4.1928     4.1928     0.0000
  3 C      5.9079     6.0000     0.0921     3.8904     3.8904    -0.0000
  4 O      8.2387     8.0000    -0.2387     2.2003     2.2003    -0.0000
  5 H      0.9812     1.0000     0.0188     0.9815     0.9815    -0.0000
  6 H      0.9932     1.0000     0.0068     0.9987     0.9987     0.0000
  7 H      0.9832     1.0000     0.0168     0.9817     0.9817     0.0000
  8 H      0.9945     1.0000     0.0055     0.9994     0.9994    -0.0000
  9 H      0.9717     1.0000     0.0283     0.9940     0.9940     0.0000
 10 H      0.9894     1.0000     0.0106     1.0901     1.0901    -0.0000
 11 H      0.8241     1.0000     0.1759     1.0145     1.0145     0.0000
 12 H      1.0326     1.0000    -0.0326     0.9921     0.9921    -0.0000
 13 H      0.8478     1.0000     0.1522     1.0689     1.0689     0.0000
 14 O      8.2900     8.0000    -0.2900     2.0970     2.0970     0.0000
 15 H      0.8548     1.0000     0.1452     1.0139     1.0139     0.0000

  Mayer bond orders larger than 0.100000
B(  0-C ,  1-C ) :   1.0862 B(  0-C ,  5-H ) :   0.9508 B(  0-C ,  6-H ) :   0.9628 
B(  0-C ,  7-H ) :   0.9527 B(  1-C ,  2-C ) :   1.8366 B(  1-C , 12-H ) :   0.9354 
B(  2-C ,  3-C ) :   1.0935 B(  2-C ,  4-O ) :   1.0773 B(  3-C ,  8-H ) :   0.9514 
B(  3-C ,  9-H ) :   0.9389 B(  3-C , 10-H ) :   0.9161 B(  4-O , 11-H ) :   0.9569 
B( 10-H , 14-O ) :   0.1204 B( 13-H , 14-O ) :   0.9660 B( 14-O , 15-H ) :   1.0061 


-------
TIMINGS
-------

Total SCF time: 0 days 0 hours 0 min 8 sec 

Total time                  ....       8.321 sec
Sum of individual times     ....       7.849 sec  ( 94.3%)

SCF preparation             ....       0.178 sec  (  2.1%)
Fock matrix formation       ....       7.439 sec  ( 89.4%)
  Startup                   ....       0.005 sec  (  0.1% of F)
  Split-RI-J                ....       0.635 sec  (  8.5% of F)
  Chain of spheres X        ....       5.595 sec  ( 75.2% of F)
  XC integration            ....       1.503 sec  ( 20.2% of F)
    XC Preparation          ....       0.000 sec  (  0.0% of XC)
    Basis function eval.    ....       0.445 sec  ( 29.6% of XC)
    Density eval.           ....       0.233 sec  ( 15.5% of XC)
    XC-Functional eval.     ....       0.087 sec  (  5.8% of XC)
    XC-Potential eval.      ....       0.257 sec  ( 17.1% of XC)
Diagonalization             ....       0.000 sec  (  0.0%)
Density matrix formation    ....       0.031 sec  (  0.4%)
Total Energy calculation    ....       0.016 sec  (  0.2%)
Population analysis         ....       0.016 sec  (  0.2%)
Orbital Transformation      ....       0.016 sec  (  0.2%)
Orbital Orthonormalization  ....       0.000 sec  (  0.0%)
DIIS solution               ....       0.084 sec  (  1.0%)
SOSCF solution              ....       0.068 sec  (  0.8%)
Finished LeanSCF after   8.3 sec

Maximum memory used throughout the entire LEANSCF-calculation: 11.7 MB


-------------------------------------------------------------------------------
                          DFT DISPERSION CORRECTION                            
                                                                               
                              DFTD3 V3.1  Rev 1                                
                          USING Becke-Johnson damping                          
-------------------------------------------------------------------------------
The B3LYP functional is recognized
Active option DFTDOPT                   ...         4   

molecular C6(AA) [au] = 1804.217301 


            DFT-D V3
 parameters
 s6 scaling factor         :     1.0000 
 a1 scaling factor         :     0.3981 
 s8 scaling factor         :     1.9889 
 a2 scaling factor         :     4.4211 
 ad hoc parameters k1-k3   :    16.0000     1.3333    -4.0000 

 Edisp/kcal,au: -11.410234001955  -0.018183363370 
 E6   /kcal   :  -5.676220944 
 E8   /kcal   :  -5.734013058 
 % E8         :  50.253246840 

-------------------------   ----------------
Dispersion correction           -0.018183363
-------------------------   ----------------


-------------------------   --------------------
FINAL SINGLE POINT ENERGY      -308.484215585344
-------------------------   --------------------



           ************************************************************
           *        Program running with 6 parallel MPI-processes     *
           *              working on a common directory               *
           ************************************************************
------------------------------------------------------------------------------
                         ORCA SCF GRADIENT CALCULATION
------------------------------------------------------------------------------

Nuc. rep. gradient        (SHARK) ... done (  0.0 sec)
HCore & Overlap gradient  (SHARK) ... done (  0.0 sec)
Split-RIJ-J gradient      (SHARK) ... done (  0.2 sec)
done (  3.6 sec)
XC gradient                       ... done (  0.8 sec)
Dispersion correction             ... done (  0.0 sec)

-------------------
DISPERSION GRADIENT
-------------------

   1   C   :    0.000470912    0.000131278   -0.000034935
   2   C   :    0.000278700    0.000350871   -0.000026545
   3   C   :   -0.000123732    0.000116515   -0.000172415
   4   C   :   -0.000122093   -0.000412882   -0.000242977
   5   O   :   -0.000235231    0.000268345   -0.000072718
   6   H   :    0.000212606    0.000054118   -0.000084628
   7   H   :    0.000270960   -0.000050584   -0.000038600
   8   H   :    0.000227197    0.000031859    0.000046727
   9   H   :   -0.000015978   -0.000288388   -0.000066316
  10   H   :   -0.000102372   -0.000212868   -0.000179541
  11   H   :   -0.000073899   -0.000241191   -0.000020996
  12   H   :   -0.000125274    0.000251592   -0.000019636
  13   H   :    0.000035235    0.000215699    0.000026774
  14   H   :   -0.000245514   -0.000019779    0.000205672
  15   O   :   -0.000318866   -0.000124981    0.000386551
  16   H   :   -0.000132651   -0.000069604    0.000293583

Difference to translation invariance:
           :   -0.0000000000   -0.0000000000   -0.0000000000

Difference to rotation invariance:
           :    0.0000000000    0.0000000000    0.0000000000

Norm of the Dispersion gradient    ...    0.0013824045
RMS gradient                       ...    0.0001995329
MAX gradient                       ...    0.0004709122

------------------
CARTESIAN GRADIENT
------------------

   1   C   :   -0.000036566    0.000007765    0.000029043
   2   C   :    0.000122693   -0.000021933    0.000064953
   3   C   :   -0.000094670   -0.000084194   -0.000029511
   4   C   :    0.000037687    0.000076146    0.000083612
   5   O   :    0.000131117    0.000097924   -0.000159200
   6   H   :   -0.000012089    0.000036300   -0.000031569
   7   H   :   -0.000000590   -0.000028582    0.000024603
   8   H   :    0.000023932   -0.000017497   -0.000034563
   9   H   :   -0.000057865   -0.000002947    0.000065132
  10   H   :   -0.000102886   -0.000007830    0.000059505
  11   H   :    0.000007933    0.000028539   -0.000012295
  12   H   :   -0.000001791   -0.000034647    0.000035982
  13   H   :   -0.000039879    0.000037224   -0.000047616
  14   H   :   -0.000001719    0.000059759    0.000146547
  15   O   :    0.000071723   -0.000106661   -0.000199711
  16   H   :   -0.000047030   -0.000039366    0.000005087

Difference to translation invariance:
           :   -0.0000000001   -0.0000000001    0.0000000000

Difference to rotation invariance:
           :   -0.0000466782   -0.0000374652   -0.0003611177

Norm of the Cartesian gradient     ...    0.0004764529
RMS gradient                       ...    0.0000687700
MAX gradient                       ...    0.0001997109

-------
TIMINGS
-------

Total SCF gradient time     ....        4.703 sec

Densities                   ....       0.001 sec  (  0.0%)
One electron gradient       ....       0.044 sec  (  0.9%)
RI-J Coulomb gradient       ....       0.249 sec  (  5.3%)
COSX gradient               ....       3.558 sec  ( 75.7%)
XC gradient                 ....       0.801 sec  ( 17.0%)

Maximum memory used throughout the entire SCFGRAD-calculation: 28.4 MB


           ************************************************************
           *        Program running with 6 parallel MPI-processes     *
           *              working on a common directory               *
           ************************************************************

------------------------------------------------------------------------------
                              ORCA PROPERTY CALCULATIONS
------------------------------------------------------------------------------

GBWName                                 ... orca.gbw
Number of atoms                         ...     16
Number of basis functions               ...    134
Max core memory                         ...   4096 MB

Electric properties:
Dipole moment                           ... YES
Quadrupole moment                       ...  NO
Static polarizability (Dipole/Dipole)   ...  NO
Static polarizability (Dipole/Quad.)    ...  NO
Static polarizability (Quad./Quad.)     ...  NO
Static polarizability (Velocity)        ...  NO
Static hyperpolarizability              ...  NO

Atomic electric properties:
Dipole moment                           ...  NO
Quadrupole moment                       ...  NO
Static polarizability                   ...  NO

Choice of electric origin               ... Center of mass
Position of electric origin             ...    -1.505948    -0.005159     0.937585

General magnetic properties:
Magnetizability                         ...  NO

EPR properties:
g-Tensor (aka g-matrix)                 ...  NO
Zero-Field splitting spin-orbit         ...  NO
Zero-field splitting spin-spin          ...  NO
Hyperfine couplings                     ...  NO (   0 nuclei)
Quadrupole couplings                    ...  NO (   0 nuclei)
Contact density                         ...  NO (   0 nuclei)

NMR properties:
Chemical shifts                         ...  NO (   0 nuclei)
Spin-rotation constants                 ...  NO (   0 nuclei)
Spin-spin couplings                     ...  NO (   0 nuclei,    0 pairs)

Choice of magnetic origin               ... GIAO
Position of magnetic origin             ...     0.000000     0.000000     0.000000

Properties with geometric perturbations:
SCF Hessian                             ...  NO
IR spectrum                             ...  NO
VCD spectrum                            ...  NO
X-ray spectroscopy properties:
SCF XES/XAS/RIXS spectra                ...  NO

SCF SOC stabilization energy            ...  NO
Diagonal Born-Oppenheimer correction    ...  NO

-------------
DIPOLE MOMENT
-------------

Method             : SCF
Type of density    : Electron Density
Multiplicity       :   1
Irrep              :   0
Energy             :  -308.4660322219745581 Eh
Basis              : AO
                                X                 Y                 Z
Electronic contribution:     -4.074588608       2.074328932       0.726266627
Nuclear contribution   :      4.970913708      -1.261864528      -0.902792304
                        -----------------------------------------
Total Dipole Moment    :      0.896325100       0.812464404      -0.176525677
                        -----------------------------------------
Magnitude (a.u.)       :      1.222562230
Magnitude (Debye)      :      3.107506232



--------------------
Rotational spectrum 
--------------------
 
Rotational constants in cm-1:             0.181265             0.050336             0.047003 
Rotational constants in MHz :          5434.188326          1509.039455          1409.107724 

Dipole components along the rotational axes: 
x,y,z [a.u.] :     1.054578     0.532401     0.314758 
x,y,z [Debye]:     2.680524     1.353256     0.800052 

 

Dipole moment calculation done in   0.0 sec 

Maximum memory used throughout the entire PROP-calculation: 6.6 MB

--------------------------------
SUGGESTED CITATIONS FOR THIS RUN
--------------------------------

Below you find a list of papers that are relevant to this ORCA run
We neither can nor want to force you to cite these papers, but we appreciate if you do
You receive ORCA, which is the product of decades of hard work by many enthusiastic individuals, for free
The only thing we kindly ask in return is that you cite our papers,
We deeply appreciate it, if you show your appreciation for ORCA by not just citing the generic ORCA reference.

Please note that relegating all ORCA citations to the supporting information does *not* help us.
SI sections are not indexed - citations you put there will not count into any citation statistics
But we need these citations in order to attract the funding resources that allow us to do what we are doing

Therefore, if you are a happy ORCA user, please consider citing a few of the papers listed below in the main body of your paper

In addition to the list printed below, the program has created the file orca.bibtex that contains the list in bibtex format
You can import this file easily into all common literature databanks and citation aid programs


List of essential papers. We consider these as the minimum necessary citations

  1. Neese, F.
     Software update: the ORCA program system, version 6.0
     WIRES Comput. Molec. Sci. 2025 15(1), e70019
     doi.org/10.1002/wcms.7019

List of papers to cite with high priority. The work reported in these papers was absolutely
necessary for this run to complete.
Our perspective: the developers of density functionals and basis sets usually get cited in chemistry papers
Good! But without the algorithms to do something with them, the functionals or basis sets would not do anything.
Hence, in our opinion, the algorithm design and method developments papers are equally worthy of getting cited

  1. Neese, F.
     An improvement of the resolution of the identity approximation for the formation of the Coulomb matrix
     J. Comp. Chem. 2003 24(14), 1740-1747
     doi.org/10.1002/jcc.10318
  2. Neese, F.; Wennmohs, F.; Hansen, A.; Becker, U.
     Efficient, approximate and parallel Hartree-Fock and hybrid DFT calculations. A 'chain-of-spheres' algorithm for the Hartree-Fock exchange
     Chem. Phys. 2009 356(1-3), 98-109
     doi.org/10.1016/j.chemphys.2008.10.036
  3. Grimme, S.; Antony, J.; Ehrlich, S.; Krieg, H.
     A consistent and accurate ab initio parametrization of density functional dispersion correction (DFT-D) for the 94 elements H-Pu
     J. Chem. Phys. 2010 132 , 154104
     doi.org/10.1063/1.3382344
  4. Grimme, S.; Ehrlich, S.; Goerigk, L.
     Effect of the damping function in dispersion corrected density functional theory
     J. Comput. Chem. 2011 32(7), 1456-1465
     doi.org/10.1002/jcc.21759
  5. Helmich-Paris, B.; de Souza, B.; Neese, F.; Izsák, R.
     An improved chain of spheres for exchange algorithm
     J. Chem. Phys. 2021 155(10), 104109
     doi.org/10.1063/5.0058766
  6. Neese, F.
     The SHARK Integral Generation and Digestion System
     J. Comp. Chem. 2022 44(3), 381
     doi.org/10.1002/jcc.26942

List of suggested additional citations. These are papers that are important in the 'surrounding' of 
of this run, or papers that preceded the highly important papers. If you like your results we are grateful for a citation.

  1. Izsak, R.; Neese, F.
     An overlap fitted chain of spheres exchange method
     J. Chem. Phys. 2011 135 , 144105
     doi.org/10.1063/1.3646921
  2. Izsak, R.; Hansen, A.; Neese, F.
     The resolution of identity and chain of spheres approximations for the LPNO-CCSD singles Fock term
     Molec. Phys. 2012 110 , 2413-2417
     doi.org/10.1080/00268976.2012.687466
  3. Neese, F.
     The ORCA program system
     WIRES Comput. Molec. Sci. 2012 2(1), 73-78
     doi.org/10.1002/wcms.81
  4. Izsak, R.; Neese, F.; Klopper, W.
     Robust fitting techniques in the chain of spheres approximation to the Fock exchange: The role of the complementary space
     J. Chem. Phys. 2013 139 , 
     doi.org/10.1063/1.4819264
  5. Neese, F.
     Software update: the ORCA program system, version 4.0
     WIRES Comput. Molec. Sci. 2018 8(1), 1-6
     doi.org/10.1002/wcms.1327
  6. Neese, F.; Wennmohs, F.; Becker, U.; Riplinger, C.
     The ORCA quantum chemistry program package
     J. Chem. Phys. 2020 152(22), 224108
     doi.org/10.1063/5.0004608
  7. Neese, F.
     Software update: The ORCA program system—Version 5.0
     WIRES Comput. Molec. Sci. 2022 12(1), e1606
     doi.org/10.1002/wcms.1606

List of optional additional citations

  1. Neese, F.
     Approximate second-order SCF convergence for spin unrestricted wavefunctions
     Chem. Phys. Lett. 2000 325(1-3), 93-98
     doi.org/10.1016/s0009-2614(00)00662-x

Timings for individual modules:

Sum of individual times          ...       16.469 sec (=   0.274 min)
Startup calculation              ...        1.466 sec (=   0.024 min)   8.9 %
SCF iterations                   ...        9.292 sec (=   0.155 min)  56.4 %
Property calculations            ...        0.490 sec (=   0.008 min)   3.0 %
SCF Gradient evaluation          ...        5.221 sec (=   0.087 min)  31.7 %
                             ****ORCA TERMINATED NORMALLY****
TOTAL RUN TIME: 0 days 0 hours 0 minutes 17 seconds 164 msec
