
                                 *****************
                                 * O   R   C   A *
                                 *****************

                                            #,                                       
                                            ###                                      
                                            ####                                     
                                            #####                                    
                                            ######                                   
                                           ########,                                 
                                     ,,################,,,,,                         
                               ,,#################################,,                 
                          ,,##########################################,,             
                       ,#########################################, ''#####,          
                    ,#############################################,,   '####,        
                  ,##################################################,,,,####,       
                ,###########''''           ''''###############################       
              ,#####''   ,,,,##########,,,,          '''####'''          '####       
            ,##' ,,,,###########################,,,                        '##       
           ' ,,###''''                  '''############,,,                           
         ,,##''                                '''############,,,,        ,,,,,,###''
      ,#''                                            '''#######################'''  
     '                                                          ''''####''''         
             ,#######,   #######,   ,#######,      ##                                
            ,#'     '#,  ##    ##  ,#'     '#,    #''#        ,####,    ,#,          
            ##       ##  ##   ,#'  ##            #'  '#       #'       ,# #          
            ##       ##  #######   ##           ,######,      #####,      #          
            '#,     ,#'  ##    ##  '#,     ,#' ,#      #,     #,   #      #          
             '#######'   ##     ##  '#######'  #'      '#     '####' #    #          



                #########################################################
                #                        -***-                          #
                #          Department of theory and spectroscopy        #
                #                                                       #
                #                      Frank Neese                      #
                #                                                       #
                #     Directorship, Architecture, Infrastructure        #
                #                    SHARK, DRIVERS                     #
                #        Core code/Algorithms in most modules           #
                #                                                       #
                #        Max Planck Institute fuer Kohlenforschung      #
                #                Kaiser Wilhelm Platz 1                 #
                #                 D-45470 Muelheim/Ruhr                 #
                #                      Germany                          #
                #                                                       #
                #                  All rights reserved                  #
                #                        -***-                          #
                #########################################################


                         Program Version 6.1.0  -  RELEASE   -
                                (GIT: $679e74b$)
                          ($2025-06-10 18:02:51 +0200$)


 With contributions from (in alphabetic order):
[Max-Planck-Institut fuer Kohlenforschung]                               
  Daniel Aravena         : Magnetic Suceptibility                        
  Michael Atanasov       : Ab Initio Ligand Field Theory (pilot matlab implementation)
  Alexander A. Auer      : GIAO ZORA, VPT2 properties, NMR spectrum      
  Ute Becker             : All parallelization in ORCA, NUMFREQ, NUMCALC 
  Giovanni Bistoni       : ED, misc. LED, open-shell LED, HFLD           
  Dmytro Bykov           : pre 5.0 version of the SCF Hessian            
  Marcos Casanova-Páez   : Triplet and SCS-CIS(D). UHF-(DLPNO)-IP/EA/STEOM-CCSD. UHF-CVS-IP/STEOM-CCSD   
  Vijay G. Chilkuri      : MRCI spin determinant printing, contributions to CSF-ICE 
  Pauline Colinet        : FMM embedding                                 
  Dipayan Datta          : RHF DLPNO-CCSD density                        
  Achintya Kumar Dutta   : EOM-CC, STEOM-CC                              
  Nicolas Foglia         : Exact transition moments, OPA infrastructure, MCD improvements    
  Dmitry Ganyushin       : Spin-Orbit,Spin-Spin,Magnetic field MRCI      
  Miquel Garcia-Rates    : C-PCM and meta-GGA Hessian, CCSD/C-PCM, Gaussian charge scheme 
  Tiago L. C. Gouveia    : GS-ROHF, GS-ROCIS                             
  Yang Guo               : DLPNO-NEVPT2, F12-NEVPT2, CIM, IAO-localization        
  Andreas Hansen         : Spin unrestricted coupled pair/coupled cluster methods 
  Ingolf Harden          : AUTO-CI MPn and infrastructure                
  Benjamin Helmich-Paris : MC-RPA, TRAH-(SCF,CASSCF), AVAS, COSX integrals, SCF dyn. polar., MC-PDFT, srDFT 
  Lee Huntington         : MR-EOM, pCC                                   
  Robert Izsak           : Overlap fitted RIJCOSX, COSX-SCS-MP3, EOM     
  Riya Kayal             : Wick's Theorem for AUTO-CI, AUTO-CI UHF-CCSDT 
  Emily Kempfer          : AUTO-CI RHF CISDT and CCSDT, approximate NEVPT4
  Christian Kollmar      : KDIIS, OOCD, Brueckner-CCSD(T), CCSD density, CASPT2, CASPT2-K, improved NEVPT2 
  Axel Koslowski         : Symmetry handling                             
  Simone Kossmann        : meta-GGA functionals, TD-DFT gradient, OOMP2, (MP2 Hessian; deprecated post 5.0) 
  Lucas Lang             : DCDCAS, Hyperfine gauge corrections, ICE-SOC+SSC
  Marvin Lechner         : AUTO-CI (C++ implementation), FIC-MRCC        
  Spencer Leger          : CASSCF response                               
  Dagmar Lenk            : GEPOL surface, SMD, ORCA-2-JSON               
  Dimitrios Liakos       : Extrapolation schemes; Compound Job, Property file
  Dimitrios Manganas     : Further ROCIS development; embedding schemes. LFT, Crystal Embedding 
  Dimitrios Pantazis     : SARC Basis sets                               
  Anastasios Papadopoulos: AUTO-CI, single reference methods and gradients 
  Taras Petrenko         : pre 6.0 DFT Hessian and TD-DFT gradient,  ECA, NRVS 
  Petra Pikulova         : Analytic Raman intensities                    
  Peter Pinski           : DLPNO-MP2, DLPNO-MP2 Gradient                 
  Shashank Vittal Rao    : ES-AILFT, MagRelax                            
  Christoph Reimann      : Effective Core Potentials                     
  Marius Retegan         : Local ZFS, SOC                                
  Christoph Riplinger    : Optimizer, TS searches, QM/MM, DLPNO-CCSD(T), (RO)-DLPNO pert. Triples 
  Michael Roemelt        : Original ROCIS implementation, recursive CI coupling coefficients
  Masaaki Saitow         : Open-shell DLPNO-CCSD energy and density      
  Barbara Sandhoefer     : DKH picture change effects                    
  Yorick L. A. Schmerwitz: GMF and freeze-and-release deltaSCF, NEB S-IDPP initial path                    
  Kantharuban Sivalingam : CASSCF convergence/infrastructure, NEVPT2, NEVPT3, NEVPT4(SD), FIC-MRCI and CEPA variants
  Bernardo de Souza      : ESD, SOC TD-DFT                               
  Georgi L. Stoychev     : AutoAux, RI-MP2 NMR, DLPNO-MP2 response, X2C  
  Van Anh Tran           : RI-MP2 g-tensors                              
  Willem Van den Heuvel  : Paramagnetic NMR                              
  Zikuan Wang            : NOTCH, Electric field optimization            
  Frank Wennmohs         : Technical directorship and infrastructure     
  Hang Xu                : AUTO-CI-Response properties                   
                                                                         
[FACCTs GmbH]                                                            
  Markus Bursch, Nicolas Foglia, Miquel Garcia-Rates, Ingolf Harden, Hagen Neugebauer, Anastasios Papadopoulos, 
  Christoph Riplinger, Bernardo de Souza, Georgi L. Stoychev                                                    
                                                                 
  APM, various basis sets, CI-OPT, improved COSX, DLPNO-Multilevel,           
  DOCKER, DRACO, updates on ESD, Fragmentator, GOAT, IRC, LR-CPCM, L-BFGS, MBIS, meta-GGA TD-DFT gradient, ML-optimized integration grids, 
  MM, NACMEs, nearIR, NEB, NEB-TS, NL-DFT gradient (VV10), 2- and 3-layer-ONIOM, interface openCOSMO-RS, QMMM,   
  Crystal-QMMM, RESP, rigid body optimization, SF, symmetry and pop. for TD-DFT, various functionals, SOLVATOR                                   
                                                                         
[Other institutions]                                                     
  V. Asgeirsson          : NEB                                           
  Christoph Bannwarth    : sTDA-DFT, sTD-DFT, PBEh-3c, B97-3c, D3        
  Giovanni Bistoni       : ETS/NOCV, ADLD/ADEX, COVALED                  
  Martin Brehm           : Molecular dynamics                            
  Ronald Cardenas        : ETS/NOCV                                      
  Martina Colucci        : COVALED                                       
  Sebastian Ehlert       : rSCAN, r2SCAN, r2SCAN-3c, D4, dhf basis sets  
  Marvin Friede          : D4 for Fr, Ra, Ac-Lr                          
  Lars Goerigk           : TD-DFT with DH, B97 family of functionals     
  Stefan Grimme          : VdW corrections, initial TS optimization, DFT functionals, gCP, sTDA/sTD-DF 
  Waldemar Hujo          : DFT-NL                                        
  H. Jonsson             : NEB                                           
  Holger Kruse           : gCP                                           
  Marcel Mueller         : wB97X-3c, vDZP basis set                      
  Hagen Neugebauer       : wr2SCAN, Native XTB                           
  Gianluca Regni         : ADLD/ADEX                                     
  Tobias Risthaus        : pre 6.0 range-separated hybrid DFT and stability analysis
  Lukas Wittmann         : regularized MP2, r2SCAN double-hybrids, wr2SCAN        
                                                                         
We gratefully acknowledge several colleagues who have allowed us to      
interface, adapt or use parts of their codes:                            
  Ed Valeev, F. Pavosevic, A. Kumar             : LibInt (2-el integral package), F12 methods 
  Garnet Chan, S. Sharma, J. Yang, R. Olivares  : DMRG                   
  Ulf Ekstrom                                   : XCFun DFT Library      
  Mihaly Kallay                                 : mrcc  (arbitrary order and MRCC methods)
  Frank Weinhold                                : gennbo (NPA and NBO analysis)           
  Simon Mueller                                 : openCOSMO-RS                            
  Christopher J. Cramer and Donald G. Truhlar   : smd solvation model                     
  S Lehtola, MJT Oliveira, MAL Marques          : LibXC Library                           
  Liviu Ungur et al                             : ANISO software                          


 Your calculation uses the libint2 library for the computation of 2-el integrals
 For citations please refer to: http://libint.valeyev.net

 Your ORCA version has been built with support for libXC version: 7.0.0
 For citations please refer to: https://libxc.gitlab.io

 This ORCA versions uses:
   CBLAS   interface :  Fast vector & matrix operations
   LAPACKE interface :  Fast linear algebra routines
   SCALAPACK package :  Parallel linear algebra routines
   Shared memory     :  Shared parallel matrices
   BLAS/LAPACK       :  OpenBLAS 0.3.29  USE64BITINT DYNAMIC_ARCH NO_AFFINITY Zen SINGLE_THREADED
        Core in use  :  Zen
   Copyright (c) 2011-2014, The OpenBLAS Project


  ***********************************
  * Starting time: Wed Sep 10 13:35:09 2025
  * Host name:     wyk-Server
  * Process ID:    2288374
  * Working dir.:  /home/wyk/Documents/code/openQDC/MGMR/singlepointcalc/44/prod
  ***********************************

Your calculation utilizes the atom-pairwise dispersion correction
with the Becke-Johnson damping scheme (D3BJ)


Warning: RI is on but no J-basis has been assigned. Assigning Def2/J (nothing to worry about!)
================================================================================

----- Orbital basis set information -----
Your calculation utilizes the basis: def2-SVP
   F. Weigend and R. Ahlrichs, Phys. Chem. Chem. Phys. 7, 3297 (2005).

----- AuxJ basis set information -----
Your calculation utilizes the auxiliary basis: def2/J
   H-Rn: F. Weigend, Phys. Chem. Chem. Phys. 8, 1057 (2006).
   Fr-Lr: K. Eichkorn, F. Weigend, O. Treutler, R. Ahlrichs; Theor. Chem. Acc. 97, 119 (1997).

================================================================================
                                        WARNINGS
                       Please study these warnings very carefully!
================================================================================


================================================================================
                                       INPUT FILE
================================================================================
NAME = orca.inp
|  1> ! B3LYP def2-SVP d3 EnGrad 
|  2> %pal nprocs 6 end 
|  3> *xyz 0 1 
|  4> C   -1.19287767713325 1.25989866811055 0.5889237529782
|  5> C   -0.76270155416334 0.28195502857966 -0.49271439787174
|  6> C   0.68851113281606 -0.22898869886455 -0.33303092472262
|  7> C   0.92861270155919 -0.99622520532402 0.96229927901371
|  8> O   1.6167400867493 0.82725397718922 -0.51407669799941
|  9> H   -0.50646231677746 2.11970435673136 0.63238072186223
| 10> H   -1.22176727977969 0.77089030005916 1.57484227347748
| 11> H   -2.20213412282824 1.63972612721308 0.371734497662
| 12> H   0.86092501821387 -0.32796971888333 1.83812031105831
| 13> H   1.9307443530021 -1.45065022158511 0.95961272198368
| 14> H   0.17280958901008 -1.78589774383467 1.08634128826483
| 15> H   1.63575580761175 1.34627200003772 0.30099858521333
| 16> H   -0.79426238492262 0.80894264966378 -1.46792409996888
| 17> H   -1.4935944954422 -1.3721076544134 -1.2259176020754
| 18> O   -1.68389825321891 -0.79781713720886 -0.47242220360036
| 19> H   0.87052039530335 -0.91525272747055 -1.18179850527538
| 20> *
| 21> 
| 22>                          ****END OF INPUT****
================================================================================

                     *******************************
                     * Energy+Gradient Calculation *
                     *******************************

---------------------------------
CARTESIAN COORDINATES (ANGSTROEM)
---------------------------------
  C     -1.192878    1.259899    0.588924
  C     -0.762702    0.281955   -0.492714
  C      0.688511   -0.228989   -0.333031
  C      0.928613   -0.996225    0.962299
  O      1.616740    0.827254   -0.514077
  H     -0.506462    2.119704    0.632381
  H     -1.221767    0.770890    1.574842
  H     -2.202134    1.639726    0.371734
  H      0.860925   -0.327970    1.838120
  H      1.930744   -1.450650    0.959613
  H      0.172810   -1.785898    1.086341
  H      1.635756    1.346272    0.300999
  H     -0.794262    0.808943   -1.467924
  H     -1.493594   -1.372108   -1.225918
  O     -1.683898   -0.797817   -0.472422
  H      0.870520   -0.915253   -1.181799

----------------------------
CARTESIAN COORDINATES (A.U.)
----------------------------
  NO LB      ZA    FRAG     MASS         X           Y           Z
   0 C     6.0000    0    12.011   -2.254212    2.380863    1.112905
   1 C     6.0000    0    12.011   -1.441297    0.532818   -0.931095
   2 C     6.0000    0    12.011    1.301097   -0.432726   -0.629337
   3 C     6.0000    0    12.011    1.754824   -1.882593    1.818482
   4 O     8.0000    0    15.999    3.055196    1.563283   -0.971464
   5 H     1.0000    0     1.008   -0.957075    4.005661    1.195026
   6 H     1.0000    0     1.008   -2.308806    1.456772    2.976021
   7 H     1.0000    0     1.008   -4.161430    3.098633    0.702476
   8 H     1.0000    0     1.008    1.626913   -0.619773    3.473544
   9 H     1.0000    0     1.008    3.648578   -2.741332    1.813405
  10 H     1.0000    0     1.008    0.326563   -3.374858    2.052888
  11 H     1.0000    0     1.008    3.091130    2.544085    0.568805
  12 H     1.0000    0     1.008   -1.500938    1.528680   -2.773975
  13 H     1.0000    0     1.008   -2.822485   -2.592908   -2.316649
  14 O     8.0000    0    15.999   -3.182107   -1.507656   -0.892749
  15 H     1.0000    0     1.008    1.645045   -1.729577   -2.233276

--------------------------------
INTERNAL COORDINATES (ANGSTROEM)
--------------------------------
 C      0   0   0     0.000000000000     0.00000000     0.00000000
 C      1   0   0     1.520317844481     0.00000000     0.00000000
 C      2   1   0     1.546796873239   113.85979892     0.00000000
 C      3   2   1     1.524526469717   113.68539921    61.57145156
 O      3   2   1     1.417757085561   110.79228055   293.92383029
 H      1   2   3     1.101054211772   110.73171474    56.32898529
 H      1   2   3     1.100908316904   111.02936249   294.92244231
 H      1   2   3     1.100017565537   109.95265783   175.68223675
 H      4   3   2     1.103725281855   111.09138152   292.00754623
 H      4   3   2     1.100353197758   110.43823562   172.28300195
 H      4   3   2     1.100094306446   110.41725194    51.35466221
 H      5   3   2     0.966482810497   107.77447364    78.31955956
 H      2   1   3     1.108939133532   108.17514562   242.54325083
 H      2   1   3     1.951336667399   134.95872376   127.73101136
 O     14   2   1     0.966323151900    43.69808808   350.32385895
 H      3   2   1     1.106567708903   106.25965951   180.56853494

---------------------------
INTERNAL COORDINATES (A.U.)
---------------------------
 C      0   0   0     0.000000000000     0.00000000     0.00000000
 C      1   0   0     2.872984362582     0.00000000     0.00000000
 C      2   1   0     2.923022475227   113.85979892     0.00000000
 C      3   2   1     2.880937511679   113.68539921    61.57145156
 O      3   2   1     2.679172616137   110.79228055   293.92383029
 H      1   2   3     2.080690918850   110.73171474    56.32898529
 H      1   2   3     2.080415217505   111.02936249   294.92244231
 H      1   2   3     2.078731941368   109.95265783   175.68223675
 H      4   3   2     2.085738509791   111.09138152   292.00754623
 H      4   3   2     2.079366194347   110.43823562   172.28300195
 H      4   3   2     2.078876960670   110.41725194    51.35466221
 H      5   3   2     1.826387824981   107.77447364    78.31955956
 H      2   1   3     2.095591261563   108.17514562   242.54325083
 H      2   1   3     3.687491896463   134.95872376   127.73101136
 O     14   2   1     1.826086113959    43.69808808   350.32385895
 H      3   2   1     2.091109918468   106.25965951   180.56853494

---------------------
BASIS SET INFORMATION
---------------------
There are 3 groups of distinct atoms

 Group   1 Type C   : 7s4p1d contracted to 3s2p1d pattern {511/31/1}
 Group   2 Type O   : 7s4p1d contracted to 3s2p1d pattern {511/31/1}
 Group   3 Type H   : 4s1p contracted to 2s1p pattern {31/1}

Atom   0C    basis set group =>   1
Atom   1C    basis set group =>   1
Atom   2C    basis set group =>   1
Atom   3C    basis set group =>   1
Atom   4O    basis set group =>   2
Atom   5H    basis set group =>   3
Atom   6H    basis set group =>   3
Atom   7H    basis set group =>   3
Atom   8H    basis set group =>   3
Atom   9H    basis set group =>   3
Atom  10H    basis set group =>   3
Atom  11H    basis set group =>   3
Atom  12H    basis set group =>   3
Atom  13H    basis set group =>   3
Atom  14O    basis set group =>   2
Atom  15H    basis set group =>   3
---------------------------------
AUXILIARY/J BASIS SET INFORMATION
---------------------------------
There are 3 groups of distinct atoms

 Group   1 Type C   : 12s5p4d2f1g contracted to 6s4p3d1f1g pattern {711111/2111/211/2/1}
 Group   2 Type O   : 12s5p4d2f1g contracted to 6s4p3d1f1g pattern {711111/2111/211/2/1}
 Group   3 Type H   : 5s2p1d contracted to 3s1p1d pattern {311/2/1}

Atom   0C    basis set group =>   1
Atom   1C    basis set group =>   1
Atom   2C    basis set group =>   1
Atom   3C    basis set group =>   1
Atom   4O    basis set group =>   2
Atom   5H    basis set group =>   3
Atom   6H    basis set group =>   3
Atom   7H    basis set group =>   3
Atom   8H    basis set group =>   3
Atom   9H    basis set group =>   3
Atom  10H    basis set group =>   3
Atom  11H    basis set group =>   3
Atom  12H    basis set group =>   3
Atom  13H    basis set group =>   3
Atom  14O    basis set group =>   2
Atom  15H    basis set group =>   3


           ************************************************************
           *        Program running with 6 parallel MPI-processes     *
           *              working on a common directory               *
           ************************************************************
------------------------------------------------------------------------------
                             ORCA STARTUP CALCULATIONS
                           -- RI-GTO INTEGRALS CHOSEN --
------------------------------------------------------------------------------
------------------------------------------------------------------------------
                   ___                                                        
                  /   \      - P O W E R E D   B Y -                         
                 /     \                                                     
                 |  |  |   _    _      __       _____    __    __             
                 |  |  |  | |  | |    /  \     |  _  \  |  |  /  |          
                  \  \/   | |  | |   /    \    | | | |  |  | /  /          
                 / \  \   | |__| |  /  /\  \   | |_| |  |  |/  /          
                |  |  |   |  __  | /  /__\  \  |    /   |      \           
                |  |  |   | |  | | |   __   |  |    \   |  |\   \          
                \     /   | |  | | |  |  |  |  | |\  \  |  | \   \       
                 \___/    |_|  |_| |__|  |__|  |_| \__\ |__|  \__/        
                                                                              
                      - O R C A' S   B I G   F R I E N D -                    
                                      &                                       
                       - I N T E G R A L  F E E D E R -                       
                                                                              
 v1 FN, 2020, v2 2021, v3 2022-2024                                           
------------------------------------------------------------------------------


----------------------
SHARK INTEGRAL PACKAGE
----------------------

Number of atoms                             ...     16
Number of basis functions                   ...    134
Number of shells                            ...     66
Maximum angular momentum                    ...      2
Integral batch strategy                     ... SHARK/LIBINT Hybrid
RI-J (if used) integral strategy            ... SPLIT-RIJ (Revised 2003 algorithm where possible)
Printlevel                                  ...      1
Contraction scheme used                     ... SEGMENTED contraction
Prescreening option                         ... SCHWARTZ
   Thresh                                   ... 2.500e-11
   Tcut                                     ... 2.500e-12
   Tpresel                                  ... 2.500e-12 
Coulomb Range Separation                    ... NOT USED
Exchange Range Separation                   ... NOT USED
Multipole approximations                    ... NOT USED
Finite Nucleus Model                        ... NOT USED
CABS basis                                  ... NOT available
Auxiliary Coulomb fitting basis             ... AVAILABLE
   # of basis functions in Aux-J            ...    404
   # of shells in Aux-J                     ...    140
   Maximum angular momentum in Aux-J        ...      4
Auxiliary J/K fitting basis                 ... NOT available
Auxiliary Correlation fitting basis         ... NOT available
Auxiliary 'external' fitting basis          ... NOT available

Checking pre-screening integrals            ... done (  0.0 sec) Dimension = 66
   => SHARK Basis and OBASIS are compatible. Storing Pre-screening
Shell pair information
Shell pair cut-off parameter TPreSel        ...   2.5e-12
Total number of shell pairs                 ...      2211
Shell pairs after pre-screening             ...      2179
Total number of primitive shell pairs       ...      7611
Primitive shell pairs kept                  ...      5862
          la=0 lb=0:    729 shell pairs
          la=1 lb=0:    820 shell pairs
          la=1 lb=1:    252 shell pairs
          la=2 lb=0:    225 shell pairs
          la=2 lb=1:    132 shell pairs
          la=2 lb=2:     21 shell pairs

Checking whether 4 symmetric matrices of dimension 134 fit in memory
:Max Core in MB      =   4096.00
 MB in use           =      6.10
 MB left             =   4089.90
 MB needed           =      0.28
 Data fit in memory  = YES
Calculating RI/J V-Matrix + Cholesky decomp.... done (  0.0 sec)
Calculating Nuclear repulsion               ... done (  0.0 sec) ENN=    266.500262266755 Eh

Diagonalization of the overlap matrix:
Smallest eigenvalue                        ... 1.948e-03
Time for diagonalization                   ...    0.002 sec
Threshold for overlap eigenvalues          ... 1.000e-07
Number of eigenvalues below threshold      ... 0
Time for construction of square roots      ...    0.001 sec
Total time needed                          ...    0.004 sec

-------------------
DFT GRID GENERATION
-------------------

General Integration Accuracy     IntAcc      ... 4.388
Radial Grid Type                 RadialGrid  ... OptM3 with GC (2021)
Angular Grid (max. ang.)         AngularGrid ... 4 (Lebedev-302)
Angular grid pruning method      GridPruning ... 4 (adaptive)
Weight generation scheme         WeightScheme... mBecke (2022)
Basis function cutoff            BFCut       ... 1.0000e-11
Integration weight cutoff        WCut        ... 1.0000e-14
Partially contracted basis set               ... off
Rotationally invariant grid construction     ... off
Angular grids for H and He will be reduced by one unit

Total number of grid points                  ...    68346
Total number of batches                      ...     1077
Average number of points per batch           ...       63
Average number of grid points per atom       ...     4272

--------------------
COSX GRID GENERATION
--------------------

GRIDX 1
-------
General Integration Accuracy     IntAcc      ... 3.816
Radial Grid Type                 RadialGrid  ... OptM3 with GC (2021)
Angular Grid (max. ang.)         AngularGrid ... 1 (Lebedev-50)
Angular grid pruning method      GridPruning ... 4 (adaptive)
Weight generation scheme         WeightScheme... mBecke (2022)
Basis function cutoff            BFCut       ... 1.0000e-11
Integration weight cutoff        WCut        ... 1.0000e-14
Partially contracted basis set               ... on
Rotationally invariant grid construction     ... off
Angular grids for H and He will be reduced by one unit

Total number of grid points                  ...     8761
Total number of batches                      ...       79
Average number of points per batch           ...      110
Average number of grid points per atom       ...      548
UseSFitting                                  ... on

GRIDX 2
-------
General Integration Accuracy     IntAcc      ... 4.020
Radial Grid Type                 RadialGrid  ... OptM3 with GC (2021)
Angular Grid (max. ang.)         AngularGrid ... 2 (Lebedev-110)
Angular grid pruning method      GridPruning ... 4 (adaptive)
Weight generation scheme         WeightScheme... mBecke (2022)
Basis function cutoff            BFCut       ... 1.0000e-11
Integration weight cutoff        WCut        ... 1.0000e-14
Partially contracted basis set               ... on
Rotationally invariant grid construction     ... off
Angular grids for H and He will be reduced by one unit

Total number of grid points                  ...    18391
Total number of batches                      ...      151
Average number of points per batch           ...      121
Average number of grid points per atom       ...     1149
UseSFitting                                  ... on

GRIDX 3
-------
General Integration Accuracy     IntAcc      ... 4.338
Radial Grid Type                 RadialGrid  ... OptM3 with GC (2021)
Angular Grid (max. ang.)         AngularGrid ... 3 (Lebedev-194)
Angular grid pruning method      GridPruning ... 4 (adaptive)
Weight generation scheme         WeightScheme... mBecke (2022)
Basis function cutoff            BFCut       ... 1.0000e-11
Integration weight cutoff        WCut        ... 1.0000e-14
Partially contracted basis set               ... on
Rotationally invariant grid construction     ... off
Angular grids for H and He will be reduced by one unit

Total number of grid points                  ...    40231
Total number of batches                      ...      324
Average number of points per batch           ...      124
Average number of grid points per atom       ...     2514
UseSFitting                                  ... on
Grids setup in   0.7 sec
Initializing property integral containers    ... done (  0.0 sec)

SHARK setup successfully completed in   0.8 seconds

Maximum memory used throughout the entire STARTUP-calculation: 19.0 MB


           ************************************************************
           *        Program running with 6 parallel MPI-processes     *
           *              working on a common directory               *
           ************************************************************
-------------------------------------------------------------------------------
                                 ORCA GUESS
                   Start orbitals & Density for SCF / CASSCF
-------------------------------------------------------------------------------

------------
SCF SETTINGS
------------
Hamiltonian:
 Density Functional     Method          .... DFT(GTOs)
 Exchange Functional    Exchange        .... B88
   X-Alpha parameter    XAlpha          ....  0.666667
   Becke's b parameter  XBeta           ....  0.004200
 Correlation Functional Correlation     .... LYP
 LDA part of GGA corr.  LDAOpt          .... VWN-5
 Gradients option       PostSCFGGA      .... off
 Hybrid DFT is turned on
   Fraction HF Exchange ScalHFX         ....  0.200000
   Scaling of DF-GGA-X  ScalDFX         ....  0.720000
   Scaling of DF-GGA-C  ScalDFC         ....  0.810000
   Scaling of DF-LDA-C  ScalLDAC        ....  1.000000
   Perturbative correction              ....  0.000000
   NL short-range parameter             ....  4.800000
 RI-approximation to the Coulomb term is turned on
   Number of AuxJ basis functions       .... 404
   RIJ-COSX (HFX calculated with COS-X)).... on


General Settings:
 Integral files         IntName         .... orca
 Hartree-Fock type      HFTyp           .... RHF
 Total Charge           Charge          ....    0
 Multiplicity           Mult            ....    1
 Number of Electrons    NEL             ....   50
 Basis Dimension        Dim             ....  134
 Nuclear Repulsion      ENuc            ....    266.5002622668 Eh

Convergence Acceleration:
 AO-DIIS                CNVDIIS         .... on
   Start iteration      DIISMaxIt       ....    12
   Startup error        DIISStart       ....  0.200000
   # of expansion vecs  DIISMaxEq       ....     5
   Bias factor          DIISBfac        ....   1.050
   Max. coefficient     DIISMaxC        ....  10.000
 MO-DIIS                CNVKDIIS        .... off
 Trust-Rad. Augm. Hess. CNVTRAH         .... auto
   Auto Start mean grad. ratio tolernc. ....  1.125000
   Auto Start start iteration           ....    50
   Auto Start num. interpolation iter.  ....    10
   Max. Number of Micro iterations      ....    24
   Max. Number of Macro iterations      .... Maxiter - #DIIS iter
   Number of Davidson start vectors     ....     2
   Converg. threshold    (grad. norm)   ....   1.000e-05
   Grad. Scal. Fac. for Micro threshold ....   0.100
   Minimum threshold for Micro iter.    ....   1.000e-02
   NR start threshold (gradient norm)   ....   1.000e-04
   Initial trust radius                 ....   0.400
   Minimum AH scaling param. (alpha)    ....   1.000
   Maximum AH scaling param. (alpha)    .... 1000.000
   Quad. conv. algorithm                .... NR
   White noise on init. David. guess    .... on
   Maximum white noise                  ....   0.010
   Pseudo random numbers                .... off
   Inactive MOs                         .... canonical
   Orbital update algorithm             .... Taylor
   Preconditioner                       .... Diag
   Full preconditioner red. dimension   ....   250
 SOSCF                 CNVSOSCF           .... on
   Start iteration     SOSCFMaxIt         ....   150
   Startup grad/error  SOSCFStart         ....  0.003300
   Hessian update      SOSCFHessUp        .... L-BFGS
   Autom. constraints  SOSCFAutoConstrain .... off
 Level Shifting         CNVShift        .... on
   Level shift para.    LevelShift      ....    0.2500
   Turn off err/grad.   ShiftErr        ....    0.0010
 Zerner damping         CNVZerner       .... off
 Static damping         CNVDamp         .... on
   Fraction old density DampFac         ....    0.7000
   Max. Damping (<1)    DampMax         ....    0.9800
   Min. Damping (>=0)   DampMin         ....    0.0000
   Turn off err/grad.   DampErr         ....    0.1000

SCF Procedure:
 Maximum # iterations   MaxIter         ....   125
 SCF integral mode      SCFMode         .... Direct
   Integral package                     .... SHARK and LIBINT hybrid scheme
 Reset frequency        DirectResetFreq ....    20
 Integral Threshold     Thresh          ....  2.500e-11 Eh
 Primitive CutOff       TCut            ....  2.500e-12 Eh

Convergence Tolerance:
 Convergence Check Mode ConvCheckMode   .... Total+1el-Energy
 Convergence forced     ConvForced      .... 0
 Energy Change          TolE            ....  1.000e-08 Eh
 1-El. energy change                    ....  1.000e-05 Eh
 Orbital Gradient       TolG            ....  1.000e-05
 Orbital Rotation angle TolX            ....  1.000e-05
 DIIS Error             TolErr          ....  5.000e-07

------------------------------
INITIAL GUESS: MODEL POTENTIAL
------------------------------
Loading Hartree-Fock densities                     ... done
Calculating cut-offs                               ... done
Initializing the effective Hamiltonian             ... done
Setting up the integral package (SHARK)            ... done
Starting the Coulomb interaction                   ... done (   0.0 sec)
Making the grid                                    ... done (   0.1 sec)
Mapping shells                                     ... done
Starting the XC term evaluation                    ... done (   0.0 sec)
  promolecular density results
     # of electrons  =     49.999497551
     EX              =    -39.931505777
     EC              =     -1.666385915
     EX+EC           =    -41.597891692
Transforming the Hamiltonian                       ... done (   0.0 sec)
Diagonalizing the Hamiltonian                      ... done (   0.0 sec)
Back transforming the eigenvectors                 ... done (   0.0 sec)
Now organizing SCF variables                       ... done
                      ------------------
                      INITIAL GUESS DONE (   0.2 sec)
                      ------------------
             **** ENERGY FILE WAS UPDATED (orca.en.tmp) ****
Finished Guess after   0.3 sec
Maximum memory used throughout the entire GUESS-calculation: 8.6 MB


           ************************************************************
           *        Program running with 6 parallel MPI-processes     *
           *              working on a common directory               *
           ************************************************************

-------------------------------------------------------------------------------------------
                                      ORCA LEAN-SCF
                              memory conserving SCF solver
-------------------------------------------------------------------------------------------

----------------------------------------D-I-I-S--------------------------------------------
Iteration    Energy (Eh)           Delta-E    RMSDP     MaxDP     DIISErr   Damp  Time(sec)
-------------------------------------------------------------------------------------------
               ***  Starting incremental Fock matrix formation  ***
    1    -308.2436026073844459     0.00e+00  1.02e-02  7.92e-02  2.43e-01  0.700   0.8
    2    -308.3514139166278483    -1.08e-01  6.90e-03  4.89e-02  1.06e-01  0.700   0.5
                               ***Turning on AO-DIIS***
    3    -308.3931001573738513    -4.17e-02  2.59e-03  1.55e-02  3.39e-02  0.700   0.5
    4    -308.4178567355440919    -2.48e-02  4.13e-03  2.09e-02  1.59e-02  0.000   0.4
    5    -308.4724293396293433    -5.46e-02  8.08e-04  5.61e-03  5.51e-03  0.000   0.5
                              *** Initializing SOSCF ***
---------------------------------------S-O-S-C-F--------------------------------------
Iteration    Energy (Eh)           Delta-E    RMSDP     MaxDP     MaxGrad    Time(sec)
--------------------------------------------------------------------------------------
    6    -308.4726576760058379    -2.28e-04  2.87e-04  1.53e-03  1.83e-03     0.5
               *** Restarting incremental Fock matrix formation ***
    7    -308.4726014120179798     5.63e-05  1.78e-04  9.69e-04  1.85e-04     0.7
    8    -308.4726017177854374    -3.06e-07  5.73e-05  4.49e-04  1.47e-04     0.7
    9    -308.4726033018437192    -1.58e-06  2.55e-05  1.94e-04  2.56e-05     0.6
   10    -308.4726032925397021     9.30e-09  9.60e-06  7.64e-05  3.34e-05     0.6
                 **** Energy Check signals convergence ****

               *****************************************************
               *                     SUCCESS                       *
               *           SCF CONVERGED AFTER  10 CYCLES          *
               *****************************************************

Recomputing exchange energy using gridx3       ... done (    1.246 sec)
Old exchange energy                            :     -8.145104188 Eh
New exchange energy                            :     -8.145048152 Eh
Exchange energy change after final integration :      0.000056035 Eh
Total energy after final integration           :   -308.472547300 Eh
             **** ENERGY FILE WAS UPDATED (orca.en.tmp) ****

----------------
TOTAL SCF ENERGY
----------------

Total Energy       :       -308.47254730008774 Eh           -8393.96475 eV

Components:
Nuclear Repulsion  :        266.50026226675482 Eh            7251.84081 eV
Electronic Energy  :       -574.97286560220800 Eh          -15645.80709 eV
One Electron Energy:       -947.79072547873216 Eh          -25790.69681 eV
Two Electron Energy:        372.81785987652415 Eh           10144.88972 eV

Virial components:
Potential Energy   :       -614.09985594530167 Eh          -16710.50663 eV
Kinetic Energy     :        305.62730864521399 Eh            8316.54187 eV
Virial Ratio       :          2.00930950400828

DFT components:
N(Alpha)           :       25.000049080480 electrons
N(Beta)            :       25.000049080480 electrons
N(Total)           :       50.000098160960 electrons
E(X)               :      -32.334302035215 Eh       
E(C)               :       -1.969993569879 Eh       
E(XC)              :      -34.304295605094 Eh       

---------------
SCF CONVERGENCE
---------------

  Last Energy change         ...   -9.3040e-09  Tolerance :   1.0000e-08
  Last MAX-Density change    ...    7.6406e-05  Tolerance :   1.0000e-07
  Last RMS-Density change    ...    9.5965e-06  Tolerance :   5.0000e-09
  Last DIIS Error            ...    1.8341e-03  Tolerance :   5.0000e-07
  Last Orbital Gradient      ...    3.3428e-05  Tolerance :   1.0000e-05
  Last Orbital Rotation      ...    2.0633e-05  Tolerance :   1.0000e-05


----------------
ORBITAL ENERGIES
----------------

  NO   OCC          E(Eh)            E(eV) 
   0   2.0000     -19.127459      -520.4846 
   1   2.0000     -19.126003      -520.4450 
   2   2.0000     -10.229022      -278.3458 
   3   2.0000     -10.227166      -278.2953 
   4   2.0000     -10.177482      -276.9434 
   5   2.0000     -10.177231      -276.9365 
   6   2.0000      -1.012534       -27.5524 
   7   2.0000      -0.999671       -27.2024 
   8   2.0000      -0.761755       -20.7284 
   9   2.0000      -0.717819       -19.5328 
  10   2.0000      -0.641213       -17.4483 
  11   2.0000      -0.573463       -15.6047 
  12   2.0000      -0.513310       -13.9679 
  13   2.0000      -0.495867       -13.4932 
  14   2.0000      -0.464735       -12.6461 
  15   2.0000      -0.435226       -11.8431 
  16   2.0000      -0.402516       -10.9530 
  17   2.0000      -0.390902       -10.6370 
  18   2.0000      -0.381833       -10.3902 
  19   2.0000      -0.362941        -9.8761 
  20   2.0000      -0.358148        -9.7457 
  21   2.0000      -0.347698        -9.4613 
  22   2.0000      -0.310906        -8.4602 
  23   2.0000      -0.293266        -7.9802 
  24   2.0000      -0.251586        -6.8460 
  25   0.0000       0.043837         1.1929 
  26   0.0000       0.055255         1.5036 
  27   0.0000       0.091670         2.4945 
  28   0.0000       0.101689         2.7671 
  29   0.0000       0.105843         2.8801 
  30   0.0000       0.129488         3.5236 
  31   0.0000       0.142890         3.8882 
  32   0.0000       0.147408         4.0112 
  33   0.0000       0.156008         4.2452 
  34   0.0000       0.174603         4.7512 
  35   0.0000       0.203277         5.5314 
*Only the first 10 virtual orbitals were printed.

                    ********************************
                    * MULLIKEN POPULATION ANALYSIS *
                    ********************************

-----------------------
MULLIKEN ATOMIC CHARGES
-----------------------
   0 C :    0.016221
   1 C :    0.120566
   2 C :    0.103143
   3 C :    0.026086
   4 O :   -0.310969
   5 H :   -0.004346
   6 H :    0.015763
   7 H :    0.020858
   8 H :   -0.002377
   9 H :    0.018280
  10 H :    0.013441
  11 H :    0.159325
  12 H :   -0.012976
  13 H :    0.161114
  14 O :   -0.300704
  15 H :   -0.023427
Sum of atomic charges:   -0.0000000

--------------------------------
MULLIKEN REDUCED ORBITAL CHARGES
--------------------------------
  0 C s       :     2.993780  s :     2.993780
      pz      :     0.998544  p :     2.962570
      px      :     0.998020
      py      :     0.966006
      dz2     :     0.008271  d :     0.027428
      dxz     :     0.001983
      dyz     :     0.006485
      dx2y2   :     0.003339
      dxy     :     0.007350

  1 C s       :     3.041397  s :     3.041397
      pz      :     1.033181  p :     2.767622
      px      :     0.884535
      py      :     0.849906
      dz2     :     0.012782  d :     0.070415
      dxz     :     0.007339
      dyz     :     0.014957
      dx2y2   :     0.016104
      dxy     :     0.019234

  2 C s       :     3.044808  s :     3.044808
      pz      :     1.021098  p :     2.781390
      px      :     0.885730
      py      :     0.874563
      dz2     :     0.012104  d :     0.070659
      dxz     :     0.008062
      dyz     :     0.016061
      dx2y2   :     0.016441
      dxy     :     0.017991

  3 C s       :     2.988544  s :     2.988544
      pz      :     0.974895  p :     2.958028
      px      :     0.992717
      py      :     0.990416
      dz2     :     0.007555  d :     0.027342
      dxz     :     0.001645
      dyz     :     0.007979
      dx2y2   :     0.003080
      dxy     :     0.007082

  4 O s       :     3.732166  s :     3.732166
      pz      :     1.479055  p :     4.565734
      px      :     1.665824
      py      :     1.420855
      dz2     :     0.003403  d :     0.013069
      dxz     :     0.001628
      dyz     :     0.003604
      dx2y2   :     0.001627
      dxy     :     0.002808

  5 H s       :     0.981033  s :     0.981033
      pz      :     0.004597  p :     0.023314
      px      :     0.008306
      py      :     0.010411

  6 H s       :     0.961011  s :     0.961011
      pz      :     0.011816  p :     0.023227
      px      :     0.005085
      py      :     0.006326

  7 H s       :     0.955999  s :     0.955999
      pz      :     0.004733  p :     0.023142
      px      :     0.012732
      py      :     0.005677

  8 H s       :     0.978992  s :     0.978992
      pz      :     0.010326  p :     0.023385
      px      :     0.005427
      py      :     0.007632

  9 H s       :     0.958803  s :     0.958803
      pz      :     0.004176  p :     0.022917
      px      :     0.012484
      py      :     0.006257

 10 H s       :     0.962883  s :     0.962883
      pz      :     0.004490  p :     0.023676
      px      :     0.009765
      py      :     0.009422

 11 H s       :     0.772273  s :     0.772273
      pz      :     0.028674  p :     0.068402
      px      :     0.017394
      py      :     0.022334

 12 H s       :     0.993429  s :     0.993429
      pz      :     0.011374  p :     0.019547
      px      :     0.003173
      py      :     0.005000

 13 H s       :     0.770619  s :     0.770619
      pz      :     0.027598  p :     0.068267
      px      :     0.017119
      py      :     0.023549

 14 O s       :     3.730688  s :     3.730688
      pz      :     1.531637  p :     4.557176
      px      :     1.661426
      py      :     1.364113
      dz2     :     0.002501  d :     0.012840
      dxz     :     0.001947
      dyz     :     0.003144
      dx2y2   :     0.001665
      dxy     :     0.003584

 15 H s       :     1.003903  s :     1.003903
      pz      :     0.009621  p :     0.019524
      px      :     0.003513
      py      :     0.006389



                     *******************************
                     * LOEWDIN POPULATION ANALYSIS *
                     *******************************

----------------------
LOEWDIN ATOMIC CHARGES
----------------------
   0 C :   -0.060597
   1 C :    0.045152
   2 C :    0.040891
   3 C :   -0.067917
   4 O :   -0.129741
   5 H :    0.019816
   6 H :    0.024336
   7 H :    0.031077
   8 H :    0.017659
   9 H :    0.026189
  10 H :    0.028013
  11 H :    0.067824
  12 H :    0.005431
  13 H :    0.073806
  14 O :   -0.133740
  15 H :    0.011801

-------------------------------
LOEWDIN REDUCED ORBITAL CHARGES
-------------------------------
  0 C s       :     2.844003  s :     2.844003
      pz      :     1.047009  p :     3.145994
      px      :     1.057718
      py      :     1.041266
      dz2     :     0.019862  d :     0.070601
      dxz     :     0.005056
      dyz     :     0.017917
      dx2y2   :     0.008672
      dxy     :     0.019093

  1 C s       :     2.857299  s :     2.857299
      pz      :     1.063207  p :     2.939409
      px      :     0.960054
      py      :     0.916148
      dz2     :     0.029116  d :     0.158140
      dxz     :     0.013874
      dyz     :     0.036022
      dx2y2   :     0.037132
      dxy     :     0.041996

  2 C s       :     2.856337  s :     2.856337
      pz      :     1.056996  p :     2.944479
      px      :     0.960966
      py      :     0.926518
      dz2     :     0.027979  d :     0.158293
      dxz     :     0.014720
      dyz     :     0.038208
      dx2y2   :     0.038600
      dxy     :     0.038785

  3 C s       :     2.846372  s :     2.846372
      pz      :     1.032407  p :     3.150659
      px      :     1.062011
      py      :     1.056241
      dz2     :     0.018827  d :     0.070887
      dxz     :     0.003926
      dyz     :     0.021803
      dx2y2   :     0.007837
      dxy     :     0.018493

  4 O s       :     3.445721  s :     3.445721
      pz      :     1.546107  p :     4.659545
      px      :     1.661336
      py      :     1.452102
      dz2     :     0.006297  d :     0.024476
      dxz     :     0.001728
      dyz     :     0.007775
      dx2y2   :     0.003028
      dxy     :     0.005647

  5 H s       :     0.915195  s :     0.915195
      pz      :     0.012597  p :     0.064988
      px      :     0.023139
      py      :     0.029252

  6 H s       :     0.910400  s :     0.910400
      pz      :     0.035130  p :     0.065264
      px      :     0.012295
      py      :     0.017839

  7 H s       :     0.904002  s :     0.904002
      pz      :     0.013385  p :     0.064920
      px      :     0.036032
      py      :     0.015503

  8 H s       :     0.917847  s :     0.917847
      pz      :     0.030171  p :     0.064494
      px      :     0.012482
      py      :     0.021841

  9 H s       :     0.908841  s :     0.908841
      pz      :     0.012512  p :     0.064970
      px      :     0.035315
      py      :     0.017143

 10 H s       :     0.905288  s :     0.905288
      pz      :     0.012978  p :     0.066698
      px      :     0.026812
      py      :     0.026908

 11 H s       :     0.751326  s :     0.751326
      pz      :     0.081084  p :     0.180850
      px      :     0.045788
      py      :     0.053978

 12 H s       :     0.929527  s :     0.929527
      pz      :     0.034486  p :     0.065042
      px      :     0.010888
      py      :     0.019669

 13 H s       :     0.746667  s :     0.746667
      pz      :     0.077114  p :     0.179527
      px      :     0.046345
      py      :     0.056068

 14 O s       :     3.449847  s :     3.449847
      pz      :     1.586317  p :     4.659507
      px      :     1.662505
      py      :     1.410685
      dz2     :     0.004404  d :     0.024386
      dxz     :     0.002487
      dyz     :     0.007424
      dx2y2   :     0.003099
      dxy     :     0.006972

 15 H s       :     0.926233  s :     0.926233
      pz      :     0.028799  p :     0.061965
      px      :     0.011824
      py      :     0.021342



                      *****************************
                      * MAYER POPULATION ANALYSIS *
                      *****************************

  NA   - Mulliken gross atomic population
  ZA   - Total nuclear charge
  QA   - Mulliken gross atomic charge
  VA   - Mayer's total valence
  BVA  - Mayer's bonded valence
  FA   - Mayer's free valence

  ATOM       NA         ZA         QA         VA         BVA        FA
  0 C      5.9838     6.0000     0.0162     3.9547     3.9547    -0.0000
  1 C      5.8794     6.0000     0.1206     4.0826     4.0826     0.0000
  2 C      5.8969     6.0000     0.1031     4.0987     4.0987    -0.0000
  3 C      5.9739     6.0000     0.0261     3.9450     3.9450    -0.0000
  4 O      8.3110     8.0000    -0.3110     2.0906     2.0906    -0.0000
  5 H      1.0043     1.0000    -0.0043     1.0052     1.0052    -0.0000
  6 H      0.9842     1.0000     0.0158     1.0052     1.0052     0.0000
  7 H      0.9791     1.0000     0.0209     0.9955     0.9955    -0.0000
  8 H      1.0024     1.0000    -0.0024     1.0042     1.0042     0.0000
  9 H      0.9817     1.0000     0.0183     0.9882     0.9882     0.0000
 10 H      0.9866     1.0000     0.0134     1.0199     1.0199     0.0000
 11 H      0.8407     1.0000     0.1593     1.0271     1.0271    -0.0000
 12 H      1.0130     1.0000    -0.0130     0.9771     0.9771     0.0000
 13 H      0.8389     1.0000     0.1611     1.0170     1.0170    -0.0000
 14 O      8.3007     8.0000    -0.3007     2.0886     2.0886    -0.0000
 15 H      1.0234     1.0000    -0.0234     0.9779     0.9779    -0.0000

  Mayer bond orders larger than 0.100000
B(  0-C ,  1-C ) :   1.0662 B(  0-C ,  5-H ) :   0.9579 B(  0-C ,  6-H ) :   0.9599 
B(  0-C ,  7-H ) :   0.9586 B(  1-C ,  2-C ) :   0.9871 B(  1-C , 12-H ) :   0.9241 
B(  1-C , 14-O ) :   1.0291 B(  2-C ,  3-C ) :   1.0748 B(  2-C ,  4-O ) :   1.0166 
B(  2-C , 15-H ) :   0.9151 B(  3-C ,  8-H ) :   0.9557 B(  3-C ,  9-H ) :   0.9614 
B(  3-C , 10-H ) :   0.9486 B(  4-O , 11-H ) :   0.9817 B( 13-H , 14-O ) :   0.9777 


-------
TIMINGS
-------

Total SCF time: 0 days 0 hours 0 min 7 sec 

Total time                  ....       7.925 sec
Sum of individual times     ....       7.286 sec  ( 91.9%)

SCF preparation             ....       0.153 sec  (  1.9%)
Fock matrix formation       ....       6.926 sec  ( 87.4%)
  Startup                   ....       0.004 sec  (  0.1% of F)
  Split-RI-J                ....       0.578 sec  (  8.3% of F)
  Chain of spheres X        ....       5.423 sec  ( 78.3% of F)
  XC integration            ....       1.399 sec  ( 20.2% of F)
    XC Preparation          ....       0.000 sec  (  0.0% of XC)
    Basis function eval.    ....       0.408 sec  ( 29.2% of XC)
    Density eval.           ....       0.229 sec  ( 16.4% of XC)
    XC-Functional eval.     ....       0.073 sec  (  5.2% of XC)
    XC-Potential eval.      ....       0.258 sec  ( 18.4% of XC)
Diagonalization             ....       0.000 sec  (  0.0%)
Density matrix formation    ....       0.024 sec  (  0.3%)
Total Energy calculation    ....       0.013 sec  (  0.2%)
Population analysis         ....       0.027 sec  (  0.3%)
Orbital Transformation      ....       0.017 sec  (  0.2%)
Orbital Orthonormalization  ....       0.000 sec  (  0.0%)
DIIS solution               ....       0.082 sec  (  1.0%)
SOSCF solution              ....       0.044 sec  (  0.6%)
Finished LeanSCF after   7.9 sec

Maximum memory used throughout the entire LEANSCF-calculation: 12.2 MB


-------------------------------------------------------------------------------
                          DFT DISPERSION CORRECTION                            
                                                                               
                              DFTD3 V3.1  Rev 1                                
                          USING Becke-Johnson damping                          
-------------------------------------------------------------------------------
The B3LYP functional is recognized
Active option DFTDOPT                   ...         4   

molecular C6(AA) [au] = 1675.056744 


            DFT-D V3
 parameters
 s6 scaling factor         :     1.0000 
 a1 scaling factor         :     0.3981 
 s8 scaling factor         :     1.9889 
 a2 scaling factor         :     4.4211 
 ad hoc parameters k1-k3   :    16.0000     1.3333    -4.0000 

 Edisp/kcal,au: -12.714384236639  -0.020261658837 
 E6   /kcal   :  -6.319080264 
 E8   /kcal   :  -6.395303973 
 % E8         :  50.299753837 

-------------------------   ----------------
Dispersion correction           -0.020261659
-------------------------   ----------------


-------------------------   --------------------
FINAL SINGLE POINT ENERGY      -308.492808958925
-------------------------   --------------------



           ************************************************************
           *        Program running with 6 parallel MPI-processes     *
           *              working on a common directory               *
           ************************************************************
------------------------------------------------------------------------------
                         ORCA SCF GRADIENT CALCULATION
------------------------------------------------------------------------------

Nuc. rep. gradient        (SHARK) ... done (  0.0 sec)
HCore & Overlap gradient  (SHARK) ... done (  0.0 sec)
Split-RIJ-J gradient      (SHARK) ... done (  0.3 sec)
done (  4.6 sec)
XC gradient                       ... done (  0.9 sec)
Dispersion correction             ... done (  0.0 sec)

-------------------
DISPERSION GRADIENT
-------------------

   1   C   :   -0.000456977    0.000433464    0.000138485
   2   C   :   -0.000256599    0.000077727   -0.000227930
   3   C   :    0.000277551   -0.000111384   -0.000142198
   4   C   :    0.000406183   -0.000383751    0.000279485
   5   O   :    0.000458251    0.000183134   -0.000198540
   6   H   :   -0.000128994    0.000318998    0.000094687
   7   H   :   -0.000242265    0.000179179    0.000244426
   8   H   :   -0.000196275    0.000180255    0.000068732
   9   H   :    0.000180429   -0.000141728    0.000298082
  10   H   :    0.000173696   -0.000184870    0.000127151
  11   H   :    0.000098470   -0.000304614    0.000194609
  12   H   :    0.000306260    0.000211234   -0.000009040
  13   H   :   -0.000125385    0.000078195   -0.000239273
  14   H   :   -0.000225096   -0.000199952   -0.000210445
  15   O   :   -0.000421746   -0.000212596   -0.000214537
  16   H   :    0.000152498   -0.000123290   -0.000203693

Difference to translation invariance:
           :    0.0000000000    0.0000000000   -0.0000000000

Difference to rotation invariance:
           :   -0.0000000000   -0.0000000000   -0.0000000000

Norm of the Dispersion gradient    ...    0.0016553793
RMS gradient                       ...    0.0002389334
MAX gradient                       ...    0.0004582506

------------------
CARTESIAN GRADIENT
------------------

   1   C   :    0.000179803    0.000020457   -0.000038582
   2   C   :   -0.000133470   -0.000211253    0.000092299
   3   C   :    0.000022941    0.000112766   -0.000053897
   4   C   :    0.000018425   -0.000037839   -0.000068234
   5   O   :   -0.000001918    0.000133575    0.000133647
   6   H   :   -0.000013286   -0.000072048   -0.000068380
   7   H   :    0.000055012   -0.000053558   -0.000042745
   8   H   :    0.000014490   -0.000002112   -0.000054965
   9   H   :    0.000055303    0.000051456    0.000038013
  10   H   :   -0.000045571    0.000012877   -0.000013472
  11   H   :   -0.000018103   -0.000006175    0.000013555
  12   H   :   -0.000060775   -0.000100080    0.000019357
  13   H   :   -0.000040041   -0.000009767   -0.000019276
  14   H   :   -0.000046346    0.000029376   -0.000016356
  15   O   :    0.000026825    0.000164321    0.000027705
  16   H   :   -0.000013289   -0.000031996    0.000051332

Difference to translation invariance:
           :   -0.0000000000   -0.0000000000    0.0000000000

Difference to rotation invariance:
           :   -0.0000084342    0.0000516265   -0.0002960898

Norm of the Cartesian gradient     ...    0.0004963479
RMS gradient                       ...    0.0000716417
MAX gradient                       ...    0.0002112525

-------
TIMINGS
-------

Total SCF gradient time     ....        5.872 sec

Densities                   ....       0.000 sec  (  0.0%)
One electron gradient       ....       0.047 sec  (  0.8%)
RI-J Coulomb gradient       ....       0.262 sec  (  4.5%)
COSX gradient               ....       4.574 sec  ( 77.9%)
XC gradient                 ....       0.938 sec  ( 16.0%)

Maximum memory used throughout the entire SCFGRAD-calculation: 28.6 MB


           ************************************************************
           *        Program running with 6 parallel MPI-processes     *
           *              working on a common directory               *
           ************************************************************

------------------------------------------------------------------------------
                              ORCA PROPERTY CALCULATIONS
------------------------------------------------------------------------------

GBWName                                 ... orca.gbw
Number of atoms                         ...     16
Number of basis functions               ...    134
Max core memory                         ...   4096 MB

Electric properties:
Dipole moment                           ... YES
Quadrupole moment                       ...  NO
Static polarizability (Dipole/Dipole)   ...  NO
Static polarizability (Dipole/Quad.)    ...  NO
Static polarizability (Quad./Quad.)     ...  NO
Static polarizability (Velocity)        ...  NO
Static hyperpolarizability              ...  NO

Atomic electric properties:
Dipole moment                           ...  NO
Quadrupole moment                       ...  NO
Static polarizability                   ...  NO

Choice of electric origin               ... Center of mass
Position of electric origin             ...    -0.123570     0.107242    -0.087183

General magnetic properties:
Magnetizability                         ...  NO

EPR properties:
g-Tensor (aka g-matrix)                 ...  NO
Zero-Field splitting spin-orbit         ...  NO
Zero-field splitting spin-spin          ...  NO
Hyperfine couplings                     ...  NO (   0 nuclei)
Quadrupole couplings                    ...  NO (   0 nuclei)
Contact density                         ...  NO (   0 nuclei)

NMR properties:
Chemical shifts                         ...  NO (   0 nuclei)
Spin-rotation constants                 ...  NO (   0 nuclei)
Spin-spin couplings                     ...  NO (   0 nuclei,    0 pairs)

Choice of magnetic origin               ... GIAO
Position of magnetic origin             ...     0.000000     0.000000     0.000000

Properties with geometric perturbations:
SCF Hessian                             ...  NO
IR spectrum                             ...  NO
VCD spectrum                            ...  NO
X-ray spectroscopy properties:
SCF XES/XAS/RIXS spectra                ...  NO

SCF SOC stabilization energy            ...  NO
Diagonal Born-Oppenheimer correction    ...  NO

-------------
DIPOLE MOMENT
-------------

Method             : SCF
Type of density    : Electron Density
Multiplicity       :   1
Irrep              :   0
Energy             :  -308.4725473000877400 Eh
Basis              : AO
                                X                 Y                 Z
Electronic contribution:      0.141470251      -0.313816777      -3.020455732
Nuclear contribution   :     -0.086837994       0.248456858       3.129423002
                        -----------------------------------------
Total Dipole Moment    :      0.054632257      -0.065359920       0.108967270
                        -----------------------------------------
Magnitude (a.u.)       :      0.138312937
Magnitude (Debye)      :      0.351563546



--------------------
Rotational spectrum 
--------------------
 
Rotational constants in cm-1:             0.150105             0.091008             0.077677 
Rotational constants in MHz :          4500.025358          2728.359231          2328.700712 

Dipole components along the rotational axes: 
x,y,z [a.u.] :    -0.058067    -0.077220     0.098973 
x,y,z [Debye]:    -0.147595    -0.196278     0.251570 

 

Dipole moment calculation done in   0.0 sec 

Maximum memory used throughout the entire PROP-calculation: 6.8 MB

--------------------------------
SUGGESTED CITATIONS FOR THIS RUN
--------------------------------

Below you find a list of papers that are relevant to this ORCA run
We neither can nor want to force you to cite these papers, but we appreciate if you do
You receive ORCA, which is the product of decades of hard work by many enthusiastic individuals, for free
The only thing we kindly ask in return is that you cite our papers,
We deeply appreciate it, if you show your appreciation for ORCA by not just citing the generic ORCA reference.

Please note that relegating all ORCA citations to the supporting information does *not* help us.
SI sections are not indexed - citations you put there will not count into any citation statistics
But we need these citations in order to attract the funding resources that allow us to do what we are doing

Therefore, if you are a happy ORCA user, please consider citing a few of the papers listed below in the main body of your paper

In addition to the list printed below, the program has created the file orca.bibtex that contains the list in bibtex format
You can import this file easily into all common literature databanks and citation aid programs


List of essential papers. We consider these as the minimum necessary citations

  1. Neese, F.
     Software update: the ORCA program system, version 6.0
     WIRES Comput. Molec. Sci. 2025 15(1), e70019
     doi.org/10.1002/wcms.7019

List of papers to cite with high priority. The work reported in these papers was absolutely
necessary for this run to complete.
Our perspective: the developers of density functionals and basis sets usually get cited in chemistry papers
Good! But without the algorithms to do something with them, the functionals or basis sets would not do anything.
Hence, in our opinion, the algorithm design and method developments papers are equally worthy of getting cited

  1. Neese, F.
     An improvement of the resolution of the identity approximation for the formation of the Coulomb matrix
     J. Comp. Chem. 2003 24(14), 1740-1747
     doi.org/10.1002/jcc.10318
  2. Neese, F.; Wennmohs, F.; Hansen, A.; Becker, U.
     Efficient, approximate and parallel Hartree-Fock and hybrid DFT calculations. A 'chain-of-spheres' algorithm for the Hartree-Fock exchange
     Chem. Phys. 2009 356(1-3), 98-109
     doi.org/10.1016/j.chemphys.2008.10.036
  3. Grimme, S.; Antony, J.; Ehrlich, S.; Krieg, H.
     A consistent and accurate ab initio parametrization of density functional dispersion correction (DFT-D) for the 94 elements H-Pu
     J. Chem. Phys. 2010 132 , 154104
     doi.org/10.1063/1.3382344
  4. Grimme, S.; Ehrlich, S.; Goerigk, L.
     Effect of the damping function in dispersion corrected density functional theory
     J. Comput. Chem. 2011 32(7), 1456-1465
     doi.org/10.1002/jcc.21759
  5. Helmich-Paris, B.; de Souza, B.; Neese, F.; Izsák, R.
     An improved chain of spheres for exchange algorithm
     J. Chem. Phys. 2021 155(10), 104109
     doi.org/10.1063/5.0058766
  6. Neese, F.
     The SHARK Integral Generation and Digestion System
     J. Comp. Chem. 2022 44(3), 381
     doi.org/10.1002/jcc.26942

List of suggested additional citations. These are papers that are important in the 'surrounding' of 
of this run, or papers that preceded the highly important papers. If you like your results we are grateful for a citation.

  1. Izsak, R.; Neese, F.
     An overlap fitted chain of spheres exchange method
     J. Chem. Phys. 2011 135 , 144105
     doi.org/10.1063/1.3646921
  2. Izsak, R.; Hansen, A.; Neese, F.
     The resolution of identity and chain of spheres approximations for the LPNO-CCSD singles Fock term
     Molec. Phys. 2012 110 , 2413-2417
     doi.org/10.1080/00268976.2012.687466
  3. Neese, F.
     The ORCA program system
     WIRES Comput. Molec. Sci. 2012 2(1), 73-78
     doi.org/10.1002/wcms.81
  4. Izsak, R.; Neese, F.; Klopper, W.
     Robust fitting techniques in the chain of spheres approximation to the Fock exchange: The role of the complementary space
     J. Chem. Phys. 2013 139 , 
     doi.org/10.1063/1.4819264
  5. Neese, F.
     Software update: the ORCA program system, version 4.0
     WIRES Comput. Molec. Sci. 2018 8(1), 1-6
     doi.org/10.1002/wcms.1327
  6. Neese, F.; Wennmohs, F.; Becker, U.; Riplinger, C.
     The ORCA quantum chemistry program package
     J. Chem. Phys. 2020 152(22), 224108
     doi.org/10.1063/5.0004608
  7. Neese, F.
     Software update: The ORCA program system—Version 5.0
     WIRES Comput. Molec. Sci. 2022 12(1), e1606
     doi.org/10.1002/wcms.1606

List of optional additional citations

  1. Neese, F.
     Approximate second-order SCF convergence for spin unrestricted wavefunctions
     Chem. Phys. Lett. 2000 325(1-3), 93-98
     doi.org/10.1016/s0009-2614(00)00662-x

Timings for individual modules:

Sum of individual times          ...       17.012 sec (=   0.284 min)
Startup calculation              ...        1.293 sec (=   0.022 min)   7.6 %
SCF iterations                   ...        8.928 sec (=   0.149 min)  52.5 %
Property calculations            ...        0.465 sec (=   0.008 min)   2.7 %
SCF Gradient evaluation          ...        6.326 sec (=   0.105 min)  37.2 %
                             ****ORCA TERMINATED NORMALLY****
TOTAL RUN TIME: 0 days 0 hours 0 minutes 17 seconds 613 msec
