
                                 *****************
                                 * O   R   C   A *
                                 *****************

                                            #,                                       
                                            ###                                      
                                            ####                                     
                                            #####                                    
                                            ######                                   
                                           ########,                                 
                                     ,,################,,,,,                         
                               ,,#################################,,                 
                          ,,##########################################,,             
                       ,#########################################, ''#####,          
                    ,#############################################,,   '####,        
                  ,##################################################,,,,####,       
                ,###########''''           ''''###############################       
              ,#####''   ,,,,##########,,,,          '''####'''          '####       
            ,##' ,,,,###########################,,,                        '##       
           ' ,,###''''                  '''############,,,                           
         ,,##''                                '''############,,,,        ,,,,,,###''
      ,#''                                            '''#######################'''  
     '                                                          ''''####''''         
             ,#######,   #######,   ,#######,      ##                                
            ,#'     '#,  ##    ##  ,#'     '#,    #''#        ,####,    ,#,          
            ##       ##  ##   ,#'  ##            #'  '#       #'       ,# #          
            ##       ##  #######   ##           ,######,      #####,      #          
            '#,     ,#'  ##    ##  '#,     ,#' ,#      #,     #,   #      #          
             '#######'   ##     ##  '#######'  #'      '#     '####' #    #          



                #########################################################
                #                        -***-                          #
                #          Department of theory and spectroscopy        #
                #                                                       #
                #                      Frank Neese                      #
                #                                                       #
                #     Directorship, Architecture, Infrastructure        #
                #                    SHARK, DRIVERS                     #
                #        Core code/Algorithms in most modules           #
                #                                                       #
                #        Max Planck Institute fuer Kohlenforschung      #
                #                Kaiser Wilhelm Platz 1                 #
                #                 D-45470 Muelheim/Ruhr                 #
                #                      Germany                          #
                #                                                       #
                #                  All rights reserved                  #
                #                        -***-                          #
                #########################################################


                         Program Version 6.1.0  -  RELEASE   -
                                (GIT: $679e74b$)
                          ($2025-06-10 18:02:51 +0200$)


 With contributions from (in alphabetic order):
[Max-Planck-Institut fuer Kohlenforschung]                               
  Daniel Aravena         : Magnetic Suceptibility                        
  Michael Atanasov       : Ab Initio Ligand Field Theory (pilot matlab implementation)
  Alexander A. Auer      : GIAO ZORA, VPT2 properties, NMR spectrum      
  Ute Becker             : All parallelization in ORCA, NUMFREQ, NUMCALC 
  Giovanni Bistoni       : ED, misc. LED, open-shell LED, HFLD           
  Dmytro Bykov           : pre 5.0 version of the SCF Hessian            
  Marcos Casanova-Páez   : Triplet and SCS-CIS(D). UHF-(DLPNO)-IP/EA/STEOM-CCSD. UHF-CVS-IP/STEOM-CCSD   
  Vijay G. Chilkuri      : MRCI spin determinant printing, contributions to CSF-ICE 
  Pauline Colinet        : FMM embedding                                 
  Dipayan Datta          : RHF DLPNO-CCSD density                        
  Achintya Kumar Dutta   : EOM-CC, STEOM-CC                              
  Nicolas Foglia         : Exact transition moments, OPA infrastructure, MCD improvements    
  Dmitry Ganyushin       : Spin-Orbit,Spin-Spin,Magnetic field MRCI      
  Miquel Garcia-Rates    : C-PCM and meta-GGA Hessian, CCSD/C-PCM, Gaussian charge scheme 
  Tiago L. C. Gouveia    : GS-ROHF, GS-ROCIS                             
  Yang Guo               : DLPNO-NEVPT2, F12-NEVPT2, CIM, IAO-localization        
  Andreas Hansen         : Spin unrestricted coupled pair/coupled cluster methods 
  Ingolf Harden          : AUTO-CI MPn and infrastructure                
  Benjamin Helmich-Paris : MC-RPA, TRAH-(SCF,CASSCF), AVAS, COSX integrals, SCF dyn. polar., MC-PDFT, srDFT 
  Lee Huntington         : MR-EOM, pCC                                   
  Robert Izsak           : Overlap fitted RIJCOSX, COSX-SCS-MP3, EOM     
  Riya Kayal             : Wick's Theorem for AUTO-CI, AUTO-CI UHF-CCSDT 
  Emily Kempfer          : AUTO-CI RHF CISDT and CCSDT, approximate NEVPT4
  Christian Kollmar      : KDIIS, OOCD, Brueckner-CCSD(T), CCSD density, CASPT2, CASPT2-K, improved NEVPT2 
  Axel Koslowski         : Symmetry handling                             
  Simone Kossmann        : meta-GGA functionals, TD-DFT gradient, OOMP2, (MP2 Hessian; deprecated post 5.0) 
  Lucas Lang             : DCDCAS, Hyperfine gauge corrections, ICE-SOC+SSC
  Marvin Lechner         : AUTO-CI (C++ implementation), FIC-MRCC        
  Spencer Leger          : CASSCF response                               
  Dagmar Lenk            : GEPOL surface, SMD, ORCA-2-JSON               
  Dimitrios Liakos       : Extrapolation schemes; Compound Job, Property file
  Dimitrios Manganas     : Further ROCIS development; embedding schemes. LFT, Crystal Embedding 
  Dimitrios Pantazis     : SARC Basis sets                               
  Anastasios Papadopoulos: AUTO-CI, single reference methods and gradients 
  Taras Petrenko         : pre 6.0 DFT Hessian and TD-DFT gradient,  ECA, NRVS 
  Petra Pikulova         : Analytic Raman intensities                    
  Peter Pinski           : DLPNO-MP2, DLPNO-MP2 Gradient                 
  Shashank Vittal Rao    : ES-AILFT, MagRelax                            
  Christoph Reimann      : Effective Core Potentials                     
  Marius Retegan         : Local ZFS, SOC                                
  Christoph Riplinger    : Optimizer, TS searches, QM/MM, DLPNO-CCSD(T), (RO)-DLPNO pert. Triples 
  Michael Roemelt        : Original ROCIS implementation, recursive CI coupling coefficients
  Masaaki Saitow         : Open-shell DLPNO-CCSD energy and density      
  Barbara Sandhoefer     : DKH picture change effects                    
  Yorick L. A. Schmerwitz: GMF and freeze-and-release deltaSCF, NEB S-IDPP initial path                    
  Kantharuban Sivalingam : CASSCF convergence/infrastructure, NEVPT2, NEVPT3, NEVPT4(SD), FIC-MRCI and CEPA variants
  Bernardo de Souza      : ESD, SOC TD-DFT                               
  Georgi L. Stoychev     : AutoAux, RI-MP2 NMR, DLPNO-MP2 response, X2C  
  Van Anh Tran           : RI-MP2 g-tensors                              
  Willem Van den Heuvel  : Paramagnetic NMR                              
  Zikuan Wang            : NOTCH, Electric field optimization            
  Frank Wennmohs         : Technical directorship and infrastructure     
  Hang Xu                : AUTO-CI-Response properties                   
                                                                         
[FACCTs GmbH]                                                            
  Markus Bursch, Nicolas Foglia, Miquel Garcia-Rates, Ingolf Harden, Hagen Neugebauer, Anastasios Papadopoulos, 
  Christoph Riplinger, Bernardo de Souza, Georgi L. Stoychev                                                    
                                                                 
  APM, various basis sets, CI-OPT, improved COSX, DLPNO-Multilevel,           
  DOCKER, DRACO, updates on ESD, Fragmentator, GOAT, IRC, LR-CPCM, L-BFGS, MBIS, meta-GGA TD-DFT gradient, ML-optimized integration grids, 
  MM, NACMEs, nearIR, NEB, NEB-TS, NL-DFT gradient (VV10), 2- and 3-layer-ONIOM, interface openCOSMO-RS, QMMM,   
  Crystal-QMMM, RESP, rigid body optimization, SF, symmetry and pop. for TD-DFT, various functionals, SOLVATOR                                   
                                                                         
[Other institutions]                                                     
  V. Asgeirsson          : NEB                                           
  Christoph Bannwarth    : sTDA-DFT, sTD-DFT, PBEh-3c, B97-3c, D3        
  Giovanni Bistoni       : ETS/NOCV, ADLD/ADEX, COVALED                  
  Martin Brehm           : Molecular dynamics                            
  Ronald Cardenas        : ETS/NOCV                                      
  Martina Colucci        : COVALED                                       
  Sebastian Ehlert       : rSCAN, r2SCAN, r2SCAN-3c, D4, dhf basis sets  
  Marvin Friede          : D4 for Fr, Ra, Ac-Lr                          
  Lars Goerigk           : TD-DFT with DH, B97 family of functionals     
  Stefan Grimme          : VdW corrections, initial TS optimization, DFT functionals, gCP, sTDA/sTD-DF 
  Waldemar Hujo          : DFT-NL                                        
  H. Jonsson             : NEB                                           
  Holger Kruse           : gCP                                           
  Marcel Mueller         : wB97X-3c, vDZP basis set                      
  Hagen Neugebauer       : wr2SCAN, Native XTB                           
  Gianluca Regni         : ADLD/ADEX                                     
  Tobias Risthaus        : pre 6.0 range-separated hybrid DFT and stability analysis
  Lukas Wittmann         : regularized MP2, r2SCAN double-hybrids, wr2SCAN        
                                                                         
We gratefully acknowledge several colleagues who have allowed us to      
interface, adapt or use parts of their codes:                            
  Ed Valeev, F. Pavosevic, A. Kumar             : LibInt (2-el integral package), F12 methods 
  Garnet Chan, S. Sharma, J. Yang, R. Olivares  : DMRG                   
  Ulf Ekstrom                                   : XCFun DFT Library      
  Mihaly Kallay                                 : mrcc  (arbitrary order and MRCC methods)
  Frank Weinhold                                : gennbo (NPA and NBO analysis)           
  Simon Mueller                                 : openCOSMO-RS                            
  Christopher J. Cramer and Donald G. Truhlar   : smd solvation model                     
  S Lehtola, MJT Oliveira, MAL Marques          : LibXC Library                           
  Liviu Ungur et al                             : ANISO software                          


 Your calculation uses the libint2 library for the computation of 2-el integrals
 For citations please refer to: http://libint.valeyev.net

 Your ORCA version has been built with support for libXC version: 7.0.0
 For citations please refer to: https://libxc.gitlab.io

 This ORCA versions uses:
   CBLAS   interface :  Fast vector & matrix operations
   LAPACKE interface :  Fast linear algebra routines
   SCALAPACK package :  Parallel linear algebra routines
   Shared memory     :  Shared parallel matrices
   BLAS/LAPACK       :  OpenBLAS 0.3.29  USE64BITINT DYNAMIC_ARCH NO_AFFINITY Zen SINGLE_THREADED
        Core in use  :  Zen
   Copyright (c) 2011-2014, The OpenBLAS Project


  ***********************************
  * Starting time: Wed Sep 10 13:34:30 2025
  * Host name:     wyk-Server
  * Process ID:    2283554
  * Working dir.:  /home/wyk/Documents/code/openQDC/MGMR/singlepointcalc/41/sp
  ***********************************

Your calculation utilizes the atom-pairwise dispersion correction
with the Becke-Johnson damping scheme (D3BJ)


Warning: RI is on but no J-basis has been assigned. Assigning Def2/J (nothing to worry about!)
================================================================================

----- Orbital basis set information -----
Your calculation utilizes the basis: def2-SVP
   F. Weigend and R. Ahlrichs, Phys. Chem. Chem. Phys. 7, 3297 (2005).

----- AuxJ basis set information -----
Your calculation utilizes the auxiliary basis: def2/J
   H-Rn: F. Weigend, Phys. Chem. Chem. Phys. 8, 1057 (2006).
   Fr-Lr: K. Eichkorn, F. Weigend, O. Treutler, R. Ahlrichs; Theor. Chem. Acc. 97, 119 (1997).

================================================================================
                                        WARNINGS
                       Please study these warnings very carefully!
================================================================================


================================================================================
                                       INPUT FILE
================================================================================
NAME = orca.inp
|  1> ! B3LYP def2-SVP d3 EnGrad 
|  2> %pal nprocs 6 end 
|  3> *xyz 0 1 
|  4> C   1.90592406156366 0.50821970019177 -0.18312910959967
|  5> C   0.50269579099345 0.7844228248237 0.27902281655488
|  6> H   2.26748508013243 1.30927987194602 -0.85141215664285
|  7> H   1.96589648514866 -0.44847875092715 -0.72258004715192
|  8> H   2.60218835244601 0.46562676665206 0.67285900881834
|  9> C   -0.48103380120006 -0.08886728104963 0.09690681764449
| 10> O   -2.00499619820011 0.55290017672034 0.62848337688942
| 11> C   -0.91705448184768 -1.40035534902587 -0.17374882243627
| 12> H   -0.34430658164555 -2.21954158598509 0.27793409060535
| 13> H   -1.28140118021308 -1.61010813423885 -1.19041516501377
| 14> H   -2.0964388241798 -0.58652405430602 0.487479794884
| 15> H   -2.42423687894303 1.00951018409686 -0.12408974221531
| 16> H   0.3052781759451 1.72391563110186 0.80268913766332
| 17> *
| 18> 
| 19>                          ****END OF INPUT****
================================================================================

                     *******************************
                     * Energy+Gradient Calculation *
                     *******************************

---------------------------------
CARTESIAN COORDINATES (ANGSTROEM)
---------------------------------
  C      1.905924    0.508220   -0.183129
  C      0.502696    0.784423    0.279023
  H      2.267485    1.309280   -0.851412
  H      1.965896   -0.448479   -0.722580
  H      2.602188    0.465627    0.672859
  C     -0.481034   -0.088867    0.096907
  O     -2.004996    0.552900    0.628483
  C     -0.917054   -1.400355   -0.173749
  H     -0.344307   -2.219542    0.277934
  H     -1.281401   -1.610108   -1.190415
  H     -2.096439   -0.586524    0.487480
  H     -2.424237    1.009510   -0.124090
  H      0.305278    1.723916    0.802689

----------------------------
CARTESIAN COORDINATES (A.U.)
----------------------------
  NO LB      ZA    FRAG     MASS         X           Y           Z
   0 C     6.0000    0    12.011    3.601675    0.960396   -0.346064
   1 C     6.0000    0    12.011    0.949957    1.482344    0.527277
   2 H     1.0000    0     1.008    4.284926    2.474180   -1.608936
   3 H     1.0000    0     1.008    3.715006   -0.847502   -1.365478
   4 H     1.0000    0     1.008    4.917423    0.879907    1.271519
   5 C     6.0000    0    12.011   -0.909022   -0.167935    0.183127
   6 O     8.0000    0    15.999   -3.788894    1.044830    1.187661
   7 C     6.0000    0    12.011   -1.732982   -2.646288   -0.328338
   8 H     1.0000    0     1.008   -0.650645   -4.194326    0.525219
   9 H     1.0000    0     1.008   -2.421497   -3.042663   -2.249559
  10 H     1.0000    0     1.008   -3.961695   -1.108370    0.921203
  11 H     1.0000    0     1.008   -4.581144    1.907698   -0.234496
  12 H     1.0000    0     1.008    0.576892    3.257728    1.516863

--------------------------------
INTERNAL COORDINATES (ANGSTROEM)
--------------------------------
 C      0   0   0     0.000000000000     0.00000000     0.00000000
 C      1   0   0     1.502971106919     0.00000000     0.00000000
 H      1   2   0     1.104095104547   111.00967477     0.00000000
 H      1   2   3     1.099943604004   111.19533980   239.17676649
 H      1   2   3     1.104225420654   110.94199974   118.71245332
 C      2   1   3     1.327978070840   121.91047226   124.35420365
 O      6   2   1     1.736922708603   111.40763253   184.15126719
 C      6   2   1     1.408321505163   150.23789339    18.31201158
 H      8   6   2     1.096869956715   117.04466376    38.32218006
 H      8   6   2     1.100161442537   117.23736781   256.88783767
 H      7   6   2     1.151751423804    70.52847356   195.00248033
 H      7   6   2     0.974998331704   108.30531133    90.11461639
 H      2   1   3     1.093547833267   118.27342430   302.70219580

---------------------------
INTERNAL COORDINATES (A.U.)
---------------------------
 C      0   0   0     0.000000000000     0.00000000     0.00000000
 C      1   0   0     2.840203779273     0.00000000     0.00000000
 H      1   2   0     2.086437373397   111.00967477     0.00000000
 H      1   2   3     2.078592174326   111.19533980   239.17676649
 H      1   2   3     2.086683635150   110.94199974   118.71245332
 C      2   1   3     2.509514865741   121.91047226   124.35420365
 O      6   2   1     3.282308235049   111.40763253   184.15126719
 C      6   2   1     2.661341953269   150.23789339    18.31201158
 H      8   6   2     2.072783822717   117.04466376    38.32218006
 H      8   6   2     2.079003829494   117.23736781   256.88783767
 H      7   6   2     2.176494765343    70.52847356   195.00248033
 H      7   6   2     1.842479827950   108.30531133    90.11461639
 H      2   1   3     2.066505919218   118.27342430   302.70219580

---------------------
BASIS SET INFORMATION
---------------------
There are 3 groups of distinct atoms

 Group   1 Type C   : 7s4p1d contracted to 3s2p1d pattern {511/31/1}
 Group   2 Type H   : 4s1p contracted to 2s1p pattern {31/1}
 Group   3 Type O   : 7s4p1d contracted to 3s2p1d pattern {511/31/1}

Atom   0C    basis set group =>   1
Atom   1C    basis set group =>   1
Atom   2H    basis set group =>   2
Atom   3H    basis set group =>   2
Atom   4H    basis set group =>   2
Atom   5C    basis set group =>   1
Atom   6O    basis set group =>   3
Atom   7C    basis set group =>   1
Atom   8H    basis set group =>   2
Atom   9H    basis set group =>   2
Atom  10H    basis set group =>   2
Atom  11H    basis set group =>   2
Atom  12H    basis set group =>   2
---------------------------------
AUXILIARY/J BASIS SET INFORMATION
---------------------------------
There are 3 groups of distinct atoms

 Group   1 Type C   : 12s5p4d2f1g contracted to 6s4p3d1f1g pattern {711111/2111/211/2/1}
 Group   2 Type H   : 5s2p1d contracted to 3s1p1d pattern {311/2/1}
 Group   3 Type O   : 12s5p4d2f1g contracted to 6s4p3d1f1g pattern {711111/2111/211/2/1}

Atom   0C    basis set group =>   1
Atom   1C    basis set group =>   1
Atom   2H    basis set group =>   2
Atom   3H    basis set group =>   2
Atom   4H    basis set group =>   2
Atom   5C    basis set group =>   1
Atom   6O    basis set group =>   3
Atom   7C    basis set group =>   1
Atom   8H    basis set group =>   2
Atom   9H    basis set group =>   2
Atom  10H    basis set group =>   2
Atom  11H    basis set group =>   2
Atom  12H    basis set group =>   2


           ************************************************************
           *        Program running with 6 parallel MPI-processes     *
           *              working on a common directory               *
           ************************************************************
------------------------------------------------------------------------------
                             ORCA STARTUP CALCULATIONS
                           -- RI-GTO INTEGRALS CHOSEN --
------------------------------------------------------------------------------
------------------------------------------------------------------------------
                   ___                                                        
                  /   \      - P O W E R E D   B Y -                         
                 /     \                                                     
                 |  |  |   _    _      __       _____    __    __             
                 |  |  |  | |  | |    /  \     |  _  \  |  |  /  |          
                  \  \/   | |  | |   /    \    | | | |  |  | /  /          
                 / \  \   | |__| |  /  /\  \   | |_| |  |  |/  /          
                |  |  |   |  __  | /  /__\  \  |    /   |      \           
                |  |  |   | |  | | |   __   |  |    \   |  |\   \          
                \     /   | |  | | |  |  |  |  | |\  \  |  | \   \       
                 \___/    |_|  |_| |__|  |__|  |_| \__\ |__|  \__/        
                                                                              
                      - O R C A' S   B I G   F R I E N D -                    
                                      &                                       
                       - I N T E G R A L  F E E D E R -                       
                                                                              
 v1 FN, 2020, v2 2021, v3 2022-2024                                           
------------------------------------------------------------------------------


----------------------
SHARK INTEGRAL PACKAGE
----------------------

Number of atoms                             ...     13
Number of basis functions                   ...    110
Number of shells                            ...     54
Maximum angular momentum                    ...      2
Integral batch strategy                     ... SHARK/LIBINT Hybrid
RI-J (if used) integral strategy            ... SPLIT-RIJ (Revised 2003 algorithm where possible)
Printlevel                                  ...      1
Contraction scheme used                     ... SEGMENTED contraction
Prescreening option                         ... SCHWARTZ
   Thresh                                   ... 2.500e-11
   Tcut                                     ... 2.500e-12
   Tpresel                                  ... 2.500e-12 
Coulomb Range Separation                    ... NOT USED
Exchange Range Separation                   ... NOT USED
Multipole approximations                    ... NOT USED
Finite Nucleus Model                        ... NOT USED
CABS basis                                  ... NOT available
Auxiliary Coulomb fitting basis             ... AVAILABLE
   # of basis functions in Aux-J            ...    333
   # of shells in Aux-J                     ...    115
   Maximum angular momentum in Aux-J        ...      4
Auxiliary J/K fitting basis                 ... NOT available
Auxiliary Correlation fitting basis         ... NOT available
Auxiliary 'external' fitting basis          ... NOT available

Checking pre-screening integrals            ... done (  0.0 sec) Dimension = 54
   => SHARK Basis and OBASIS are compatible. Storing Pre-screening
Shell pair information
Shell pair cut-off parameter TPreSel        ...   2.5e-12
Total number of shell pairs                 ...      1485
Shell pairs after pre-screening             ...      1445
Total number of primitive shell pairs       ...      5139
Primitive shell pairs kept                  ...      3915
          la=0 lb=0:    484 shell pairs
          la=1 lb=0:    544 shell pairs
          la=1 lb=1:    162 shell pairs
          la=2 lb=0:    153 shell pairs
          la=2 lb=1:     87 shell pairs
          la=2 lb=2:     15 shell pairs

Checking whether 4 symmetric matrices of dimension 110 fit in memory
:Max Core in MB      =   4096.00
 MB in use           =      5.13
 MB left             =   4090.87
 MB needed           =      0.19
 Data fit in memory  = YES
Calculating RI/J V-Matrix + Cholesky decomp.... done (  0.0 sec)
Calculating Nuclear repulsion               ... done (  0.0 sec) ENN=    170.784629943017 Eh

Diagonalization of the overlap matrix:
Smallest eigenvalue                        ... 1.428e-03
Time for diagonalization                   ...    0.002 sec
Threshold for overlap eigenvalues          ... 1.000e-07
Number of eigenvalues below threshold      ... 0
Time for construction of square roots      ...    0.001 sec
Total time needed                          ...    0.004 sec

-------------------
DFT GRID GENERATION
-------------------

General Integration Accuracy     IntAcc      ... 4.388
Radial Grid Type                 RadialGrid  ... OptM3 with GC (2021)
Angular Grid (max. ang.)         AngularGrid ... 4 (Lebedev-302)
Angular grid pruning method      GridPruning ... 4 (adaptive)
Weight generation scheme         WeightScheme... mBecke (2022)
Basis function cutoff            BFCut       ... 1.0000e-11
Integration weight cutoff        WCut        ... 1.0000e-14
Partially contracted basis set               ... off
Rotationally invariant grid construction     ... off
Angular grids for H and He will be reduced by one unit

Total number of grid points                  ...    56207
Total number of batches                      ...      886
Average number of points per batch           ...       63
Average number of grid points per atom       ...     4324

--------------------
COSX GRID GENERATION
--------------------

GRIDX 1
-------
General Integration Accuracy     IntAcc      ... 3.816
Radial Grid Type                 RadialGrid  ... OptM3 with GC (2021)
Angular Grid (max. ang.)         AngularGrid ... 1 (Lebedev-50)
Angular grid pruning method      GridPruning ... 4 (adaptive)
Weight generation scheme         WeightScheme... mBecke (2022)
Basis function cutoff            BFCut       ... 1.0000e-11
Integration weight cutoff        WCut        ... 1.0000e-14
Partially contracted basis set               ... on
Rotationally invariant grid construction     ... off
Angular grids for H and He will be reduced by one unit

Total number of grid points                  ...     7236
Total number of batches                      ...       64
Average number of points per batch           ...      113
Average number of grid points per atom       ...      557
UseSFitting                                  ... on

GRIDX 2
-------
General Integration Accuracy     IntAcc      ... 4.020
Radial Grid Type                 RadialGrid  ... OptM3 with GC (2021)
Angular Grid (max. ang.)         AngularGrid ... 2 (Lebedev-110)
Angular grid pruning method      GridPruning ... 4 (adaptive)
Weight generation scheme         WeightScheme... mBecke (2022)
Basis function cutoff            BFCut       ... 1.0000e-11
Integration weight cutoff        WCut        ... 1.0000e-14
Partially contracted basis set               ... on
Rotationally invariant grid construction     ... off
Angular grids for H and He will be reduced by one unit

Total number of grid points                  ...    15310
Total number of batches                      ...      127
Average number of points per batch           ...      120
Average number of grid points per atom       ...     1178
UseSFitting                                  ... on

GRIDX 3
-------
General Integration Accuracy     IntAcc      ... 4.338
Radial Grid Type                 RadialGrid  ... OptM3 with GC (2021)
Angular Grid (max. ang.)         AngularGrid ... 3 (Lebedev-194)
Angular grid pruning method      GridPruning ... 4 (adaptive)
Weight generation scheme         WeightScheme... mBecke (2022)
Basis function cutoff            BFCut       ... 1.0000e-11
Integration weight cutoff        WCut        ... 1.0000e-14
Partially contracted basis set               ... on
Rotationally invariant grid construction     ... off
Angular grids for H and He will be reduced by one unit

Total number of grid points                  ...    33577
Total number of batches                      ...      269
Average number of points per batch           ...      124
Average number of grid points per atom       ...     2583
UseSFitting                                  ... on
Grids setup in   0.7 sec
Initializing property integral containers    ... done (  0.0 sec)

SHARK setup successfully completed in   0.8 seconds

Maximum memory used throughout the entire STARTUP-calculation: 15.4 MB


           ************************************************************
           *        Program running with 6 parallel MPI-processes     *
           *              working on a common directory               *
           ************************************************************
-------------------------------------------------------------------------------
                                 ORCA GUESS
                   Start orbitals & Density for SCF / CASSCF
-------------------------------------------------------------------------------

------------
SCF SETTINGS
------------
Hamiltonian:
 Density Functional     Method          .... DFT(GTOs)
 Exchange Functional    Exchange        .... B88
   X-Alpha parameter    XAlpha          ....  0.666667
   Becke's b parameter  XBeta           ....  0.004200
 Correlation Functional Correlation     .... LYP
 LDA part of GGA corr.  LDAOpt          .... VWN-5
 Gradients option       PostSCFGGA      .... off
 Hybrid DFT is turned on
   Fraction HF Exchange ScalHFX         ....  0.200000
   Scaling of DF-GGA-X  ScalDFX         ....  0.720000
   Scaling of DF-GGA-C  ScalDFC         ....  0.810000
   Scaling of DF-LDA-C  ScalLDAC        ....  1.000000
   Perturbative correction              ....  0.000000
   NL short-range parameter             ....  4.800000
 RI-approximation to the Coulomb term is turned on
   Number of AuxJ basis functions       .... 333
   RIJ-COSX (HFX calculated with COS-X)).... on


General Settings:
 Integral files         IntName         .... orca
 Hartree-Fock type      HFTyp           .... RHF
 Total Charge           Charge          ....    0
 Multiplicity           Mult            ....    1
 Number of Electrons    NEL             ....   40
 Basis Dimension        Dim             ....  110
 Nuclear Repulsion      ENuc            ....    170.7846299430 Eh

Convergence Acceleration:
 AO-DIIS                CNVDIIS         .... on
   Start iteration      DIISMaxIt       ....    12
   Startup error        DIISStart       ....  0.200000
   # of expansion vecs  DIISMaxEq       ....     5
   Bias factor          DIISBfac        ....   1.050
   Max. coefficient     DIISMaxC        ....  10.000
 MO-DIIS                CNVKDIIS        .... off
 Trust-Rad. Augm. Hess. CNVTRAH         .... auto
   Auto Start mean grad. ratio tolernc. ....  1.125000
   Auto Start start iteration           ....    50
   Auto Start num. interpolation iter.  ....    10
   Max. Number of Micro iterations      ....    24
   Max. Number of Macro iterations      .... Maxiter - #DIIS iter
   Number of Davidson start vectors     ....     2
   Converg. threshold    (grad. norm)   ....   1.000e-05
   Grad. Scal. Fac. for Micro threshold ....   0.100
   Minimum threshold for Micro iter.    ....   1.000e-02
   NR start threshold (gradient norm)   ....   1.000e-04
   Initial trust radius                 ....   0.400
   Minimum AH scaling param. (alpha)    ....   1.000
   Maximum AH scaling param. (alpha)    .... 1000.000
   Quad. conv. algorithm                .... NR
   White noise on init. David. guess    .... on
   Maximum white noise                  ....   0.010
   Pseudo random numbers                .... off
   Inactive MOs                         .... canonical
   Orbital update algorithm             .... Taylor
   Preconditioner                       .... Diag
   Full preconditioner red. dimension   ....   250
 SOSCF                 CNVSOSCF           .... on
   Start iteration     SOSCFMaxIt         ....   150
   Startup grad/error  SOSCFStart         ....  0.003300
   Hessian update      SOSCFHessUp        .... L-BFGS
   Autom. constraints  SOSCFAutoConstrain .... off
 Level Shifting         CNVShift        .... on
   Level shift para.    LevelShift      ....    0.2500
   Turn off err/grad.   ShiftErr        ....    0.0010
 Zerner damping         CNVZerner       .... off
 Static damping         CNVDamp         .... on
   Fraction old density DampFac         ....    0.7000
   Max. Damping (<1)    DampMax         ....    0.9800
   Min. Damping (>=0)   DampMin         ....    0.0000
   Turn off err/grad.   DampErr         ....    0.1000

SCF Procedure:
 Maximum # iterations   MaxIter         ....   125
 SCF integral mode      SCFMode         .... Direct
   Integral package                     .... SHARK and LIBINT hybrid scheme
 Reset frequency        DirectResetFreq ....    20
 Integral Threshold     Thresh          ....  2.500e-11 Eh
 Primitive CutOff       TCut            ....  2.500e-12 Eh

Convergence Tolerance:
 Convergence Check Mode ConvCheckMode   .... Total+1el-Energy
 Convergence forced     ConvForced      .... 0
 Energy Change          TolE            ....  1.000e-08 Eh
 1-El. energy change                    ....  1.000e-05 Eh
 Orbital Gradient       TolG            ....  1.000e-05
 Orbital Rotation angle TolX            ....  1.000e-05
 DIIS Error             TolErr          ....  5.000e-07

------------------------------
INITIAL GUESS: MODEL POTENTIAL
------------------------------
Loading Hartree-Fock densities                     ... done
Calculating cut-offs                               ... done
Initializing the effective Hamiltonian             ... done
Setting up the integral package (SHARK)            ... done
Starting the Coulomb interaction                   ... done (   0.0 sec)
Making the grid                                    ... done (   0.1 sec)
Mapping shells                                     ... done
Starting the XC term evaluation                    ... done (   0.0 sec)
  promolecular density results
     # of electrons  =     39.994279217
     EX              =    -31.077223946
     EC              =     -1.304580571
     EX+EC           =    -32.381804517
Transforming the Hamiltonian                       ... done (   0.0 sec)
Diagonalizing the Hamiltonian                      ... done (   0.0 sec)
Back transforming the eigenvectors                 ... done (   0.0 sec)
Now organizing SCF variables                       ... done
                      ------------------
                      INITIAL GUESS DONE (   0.1 sec)
                      ------------------
             **** ENERGY FILE WAS UPDATED (orca.en.tmp) ****
Finished Guess after   0.3 sec
Maximum memory used throughout the entire GUESS-calculation: 7.5 MB


           ************************************************************
           *        Program running with 6 parallel MPI-processes     *
           *              working on a common directory               *
           ************************************************************

-------------------------------------------------------------------------------------------
                                      ORCA LEAN-SCF
                              memory conserving SCF solver
-------------------------------------------------------------------------------------------

----------------------------------------D-I-I-S--------------------------------------------
Iteration    Energy (Eh)           Delta-E    RMSDP     MaxDP     DIISErr   Damp  Time(sec)
-------------------------------------------------------------------------------------------
               ***  Starting incremental Fock matrix formation  ***
    1    -231.8141392089187889     0.00e+00  1.04e-02  9.13e-02  2.01e-01  0.700   0.5
    2    -231.9016724702763668    -8.75e-02  7.36e-03  5.71e-02  1.04e-01  0.700   0.3
                               ***Turning on AO-DIIS***
    3    -231.9376367434284703    -3.60e-02  3.00e-03  2.11e-02  3.94e-02  0.700   0.3
    4    -231.9580803938808913    -2.04e-02  4.96e-03  2.88e-02  1.83e-02  0.000   0.3
    5    -232.0020732525249514    -4.40e-02  1.03e-03  5.64e-03  7.67e-03  0.000   0.3
                              *** Initializing SOSCF ***
---------------------------------------S-O-S-C-F--------------------------------------
Iteration    Energy (Eh)           Delta-E    RMSDP     MaxDP     MaxGrad    Time(sec)
--------------------------------------------------------------------------------------
    6    -232.0023999472153378    -3.27e-04  3.86e-04  2.36e-03  1.94e-03     0.3
               *** Restarting incremental Fock matrix formation ***
    7    -232.0023939690209431     5.98e-06  3.30e-04  1.96e-03  3.69e-04     0.5
    8    -232.0023942881522316    -3.19e-07  1.07e-04  1.11e-03  5.26e-04     0.5
    9    -232.0023980949445104    -3.81e-06  7.15e-05  5.16e-04  1.69e-04     0.4
   10    -232.0023979786303130     1.16e-07  3.55e-05  2.60e-04  1.21e-04     0.4
   11    -232.0023983983905964    -4.20e-07  6.98e-06  3.71e-05  8.00e-06     0.4
   12    -232.0023983983919038    -1.31e-12  3.42e-06  2.79e-05  1.37e-05     0.4
                 **** Energy Check signals convergence ****

               *****************************************************
               *                     SUCCESS                       *
               *           SCF CONVERGED AFTER  12 CYCLES          *
               *****************************************************

Recomputing exchange energy using gridx3       ... done (    0.705 sec)
Old exchange energy                            :     -6.317691017 Eh
New exchange energy                            :     -6.317706563 Eh
Exchange energy change after final integration :     -0.000015546 Eh
Total energy after final integration           :   -232.002413947 Eh
             **** ENERGY FILE WAS UPDATED (orca.en.tmp) ****

----------------
TOTAL SCF ENERGY
----------------

Total Energy       :       -232.00241394675822 Eh           -6313.10664 eV

Components:
Nuclear Repulsion  :        170.78462994301668 Eh            4647.28604 eV
Electronic Energy  :       -402.78702834345950 Eh          -10960.39226 eV
One Electron Energy:       -651.65444454139526 Eh          -17732.41893 eV
Two Electron Energy:        248.86741619793574 Eh            6772.02668 eV

Virial components:
Potential Energy   :       -461.70317903193052 Eh          -12563.58222 eV
Kinetic Energy     :        229.70076508517229 Eh            6250.47559 eV
Virial Ratio       :          2.01002020546485

DFT components:
N(Alpha)           :       20.000005768801 electrons
N(Beta)            :       20.000005768801 electrons
N(Total)           :       40.000011537601 electrons
E(X)               :      -25.115240069851 Eh       
E(C)               :       -1.549846049144 Eh       
E(XC)              :      -26.665086118995 Eh       

---------------
SCF CONVERGENCE
---------------

  Last Energy change         ...    1.3074e-12  Tolerance :   1.0000e-08
  Last MAX-Density change    ...    2.7853e-05  Tolerance :   1.0000e-07
  Last RMS-Density change    ...    3.4167e-06  Tolerance :   5.0000e-09
  Last DIIS Error            ...    1.9449e-03  Tolerance :   5.0000e-07
  Last Orbital Gradient      ...    1.3740e-05  Tolerance :   1.0000e-05
  Last Orbital Rotation      ...    1.3567e-05  Tolerance :   1.0000e-05


----------------
ORBITAL ENERGIES
----------------

  NO   OCC          E(Eh)            E(eV) 
   0   2.0000     -19.166732      -521.5533 
   1   2.0000     -10.241944      -278.6975 
   2   2.0000     -10.190492      -277.2974 
   3   2.0000     -10.188410      -277.2407 
   4   2.0000     -10.142525      -275.9921 
   5   2.0000      -1.017689       -27.6927 
   6   2.0000      -0.789197       -21.4751 
   7   2.0000      -0.712999       -19.4017 
   8   2.0000      -0.643027       -17.4976 
   9   2.0000      -0.546585       -14.8733 
  10   2.0000      -0.499251       -13.5853 
  11   2.0000      -0.447078       -12.1656 
  12   2.0000      -0.436432       -11.8759 
  13   2.0000      -0.417058       -11.3487 
  14   2.0000      -0.400255       -10.8915 
  15   2.0000      -0.379108       -10.3161 
  16   2.0000      -0.371605       -10.1119 
  17   2.0000      -0.350780        -9.5452 
  18   2.0000      -0.258128        -7.0240 
  19   2.0000      -0.196532        -5.3479 
  20   0.0000       0.015861         0.4316 
  21   0.0000       0.021854         0.5947 
  22   0.0000       0.046883         1.2758 
  23   0.0000       0.084244         2.2924 
  24   0.0000       0.113397         3.0857 
  25   0.0000       0.127379         3.4662 
  26   0.0000       0.136801         3.7225 
  27   0.0000       0.150330         4.0907 
  28   0.0000       0.162851         4.4314 
  29   0.0000       0.171418         4.6645 
  30   0.0000       0.256986         6.9930 
*Only the first 10 virtual orbitals were printed.

                    ********************************
                    * MULLIKEN POPULATION ANALYSIS *
                    ********************************

-----------------------
MULLIKEN ATOMIC CHARGES
-----------------------
   0 C :    0.061686
   1 C :   -0.131287
   2 H :    0.020559
   3 H :    0.020491
   4 H :    0.025734
   5 C :    0.077245
   6 O :   -0.246448
   7 C :   -0.250920
   8 H :    0.031204
   9 H :    0.022826
  10 H :    0.183865
  11 H :    0.171951
  12 H :    0.013094
Sum of atomic charges:    0.0000000

--------------------------------
MULLIKEN REDUCED ORBITAL CHARGES
--------------------------------
  0 C s       :     2.958960  s :     2.958960
      pz      :     0.995665  p :     2.950133
      px      :     0.954975
      py      :     0.999493
      dz2     :     0.002516  d :     0.029221
      dxz     :     0.008683
      dyz     :     0.006564
      dx2y2   :     0.007684
      dxy     :     0.003773

  1 C s       :     3.156071  s :     3.156071
      pz      :     1.013554  p :     2.940464
      px      :     0.969310
      py      :     0.957600
      dz2     :     0.002623  d :     0.034753
      dxz     :     0.007974
      dyz     :     0.004802
      dx2y2   :     0.009272
      dxy     :     0.010082

  2 H s       :     0.956146  s :     0.956146
      pz      :     0.008552  p :     0.023295
      px      :     0.005250
      py      :     0.009493

  3 H s       :     0.956409  s :     0.956409
      pz      :     0.007064  p :     0.023100
      px      :     0.003947
      py      :     0.012090

  4 H s       :     0.950932  s :     0.950932
      pz      :     0.010263  p :     0.023334
      px      :     0.007887
      py      :     0.005184

  5 C s       :     3.206170  s :     3.206170
      pz      :     1.030606  p :     2.663365
      px      :     0.712261
      py      :     0.920498
      dz2     :     0.003978  d :     0.053220
      dxz     :     0.006913
      dyz     :     0.009124
      dx2y2   :     0.013443
      dxy     :     0.019763

  6 O s       :     3.729289  s :     3.729289
      pz      :     1.573537  p :     4.507882
      px      :     1.466353
      py      :     1.467992
      dz2     :     0.002314  d :     0.009276
      dxz     :     0.002764
      dyz     :     0.001973
      dx2y2   :     0.001114
      dxy     :     0.001111

  7 C s       :     3.083616  s :     3.083616
      pz      :     1.051898  p :     3.142803
      px      :     1.209426
      py      :     0.881479
      dz2     :     0.006161  d :     0.024501
      dxz     :     0.001680
      dyz     :     0.005340
      dx2y2   :     0.004008
      dxy     :     0.007312

  8 H s       :     0.944826  s :     0.944826
      pz      :     0.006986  p :     0.023970
      px      :     0.007702
      py      :     0.009283

  9 H s       :     0.952611  s :     0.952611
      pz      :     0.012523  p :     0.024563
      px      :     0.007736
      py      :     0.004304

 10 H s       :     0.747005  s :     0.747005
      pz      :     0.009528  p :     0.069129
      px      :     0.015409
      py      :     0.044192

 11 H s       :     0.762470  s :     0.762470
      pz      :     0.026980  p :     0.065579
      px      :     0.017112
      py      :     0.021487

 12 H s       :     0.963991  s :     0.963991
      pz      :     0.007305  p :     0.022915
      px      :     0.003619
      py      :     0.011990



                     *******************************
                     * LOEWDIN POPULATION ANALYSIS *
                     *******************************

----------------------
LOEWDIN ATOMIC CHARGES
----------------------
   0 C :   -0.044658
   1 C :   -0.078555
   2 H :    0.031388
   3 H :    0.031782
   4 H :    0.033430
   5 C :    0.114650
   6 O :   -0.048142
   7 C :   -0.290845
   8 H :    0.024645
   9 H :    0.021879
  10 H :    0.088157
  11 H :    0.082997
  12 H :    0.033271

-------------------------------
LOEWDIN REDUCED ORBITAL CHARGES
-------------------------------
  0 C s       :     2.835854  s :     2.835854
      pz      :     1.058774  p :     3.135019
      px      :     1.010837
      py      :     1.065407
      dz2     :     0.005910  d :     0.073785
      dxz     :     0.022085
      dyz     :     0.016841
      dx2y2   :     0.020285
      dxy     :     0.008664

  1 C s       :     2.872741  s :     2.872741
      pz      :     1.022710  p :     3.119019
      px      :     1.047242
      py      :     1.049067
      dz2     :     0.006427  d :     0.086795
      dxz     :     0.016780
      dyz     :     0.011059
      dx2y2   :     0.024999
      dxy     :     0.027530

  2 H s       :     0.905016  s :     0.905016
      pz      :     0.022393  p :     0.063595
      px      :     0.014825
      py      :     0.026377

  3 H s       :     0.903698  s :     0.903698
      pz      :     0.018874  p :     0.064520
      px      :     0.011392
      py      :     0.034253

  4 H s       :     0.902865  s :     0.902865
      pz      :     0.028647  p :     0.063704
      px      :     0.022874
      py      :     0.012183

  5 C s       :     2.922435  s :     2.922435
      pz      :     1.002501  p :     2.843624
      px      :     0.799465
      py      :     1.041659
      dz2     :     0.007752  d :     0.119290
      dxz     :     0.013891
      dyz     :     0.018368
      dx2y2   :     0.031620
      dxy     :     0.047659

  6 O s       :     3.497224  s :     3.497224
      pz      :     1.611064  p :     4.533625
      px      :     1.459543
      py      :     1.463018
      dz2     :     0.003711  d :     0.017293
      dxz     :     0.004534
      dyz     :     0.003584
      dx2y2   :     0.003524
      dxy     :     0.001941

  7 C s       :     2.889873  s :     2.889873
      pz      :     1.112472  p :     3.334765
      px      :     1.213665
      py      :     1.008628
      dz2     :     0.016327  d :     0.066208
      dxz     :     0.005054
      dyz     :     0.014236
      dx2y2   :     0.012453
      dxy     :     0.018139

  8 H s       :     0.903404  s :     0.903404
      pz      :     0.019404  p :     0.071951
      px      :     0.026349
      py      :     0.026198

  9 H s       :     0.905631  s :     0.905631
      pz      :     0.037953  p :     0.072490
      px      :     0.023505
      py      :     0.011032

 10 H s       :     0.696966  s :     0.696966
      pz      :     0.022772  p :     0.214877
      px      :     0.035585
      py      :     0.156520

 11 H s       :     0.740652  s :     0.740652
      pz      :     0.074695  p :     0.176352
      px      :     0.048132
      py      :     0.053525

 12 H s       :     0.897758  s :     0.897758
      pz      :     0.022249  p :     0.068971
      px      :     0.012318
      py      :     0.034404



                      *****************************
                      * MAYER POPULATION ANALYSIS *
                      *****************************

  NA   - Mulliken gross atomic population
  ZA   - Total nuclear charge
  QA   - Mulliken gross atomic charge
  VA   - Mayer's total valence
  BVA  - Mayer's bonded valence
  FA   - Mayer's free valence

  ATOM       NA         ZA         QA         VA         BVA        FA
  0 C      5.9383     6.0000     0.0617     3.9429     3.9429    -0.0000
  1 C      6.1313     6.0000    -0.1313     3.9876     3.9876     0.0000
  2 H      0.9794     1.0000     0.0206     0.9844     0.9844    -0.0000
  3 H      0.9795     1.0000     0.0205     1.0053     1.0053    -0.0000
  4 H      0.9743     1.0000     0.0257     0.9842     0.9842     0.0000
  5 C      5.9228     6.0000     0.0772     3.9276     3.9276     0.0000
  6 O      8.2464     8.0000    -0.2464     2.2250     2.2250     0.0000
  7 C      6.2509     6.0000    -0.2509     3.6804     3.6804     0.0000
  8 H      0.9688     1.0000     0.0312     0.9917     0.9917     0.0000
  9 H      0.9772     1.0000     0.0228     0.9850     0.9850    -0.0000
 10 H      0.8161     1.0000     0.1839     1.0767     1.0767     0.0000
 11 H      0.8280     1.0000     0.1720     1.0253     1.0253     0.0000
 12 H      0.9869     1.0000     0.0131     0.9933     0.9933     0.0000

  Mayer bond orders larger than 0.100000
B(  0-C ,  1-C ) :   1.0688 B(  0-C ,  2-H ) :   0.9544 B(  0-C ,  3-H ) :   0.9650 
B(  0-C ,  4-H ) :   0.9539 B(  1-C ,  5-C ) :   1.8780 B(  1-C , 12-H ) :   0.9272 
B(  5-C ,  6-O ) :   0.5576 B(  5-C ,  7-C ) :   1.3279 B(  6-O , 10-H ) :   0.6158 
B(  6-O , 11-H ) :   0.9683 B(  7-C ,  8-H ) :   0.9531 B(  7-C ,  9-H ) :   0.9281 
B(  7-C , 10-H ) :   0.3931 

-------
TIMINGS
-------

Total SCF time: 0 days 0 hours 0 min 6 sec 

Total time                  ....       6.120 sec
Sum of individual times     ....       5.660 sec  ( 92.5%)

SCF preparation             ....       0.171 sec  (  2.8%)
Fock matrix formation       ....       5.293 sec  ( 86.5%)
  Startup                   ....       0.004 sec  (  0.1% of F)
  Split-RI-J                ....       0.422 sec  (  8.0% of F)
  Chain of spheres X        ....       3.977 sec  ( 75.1% of F)
  XC integration            ....       1.154 sec  ( 21.8% of F)
    XC Preparation          ....       0.000 sec  (  0.0% of XC)
    Basis function eval.    ....       0.362 sec  ( 31.3% of XC)
    Density eval.           ....       0.192 sec  ( 16.6% of XC)
    XC-Functional eval.     ....       0.080 sec  (  6.9% of XC)
    XC-Potential eval.      ....       0.227 sec  ( 19.7% of XC)
Diagonalization             ....       0.000 sec  (  0.0%)
Density matrix formation    ....       0.026 sec  (  0.4%)
Total Energy calculation    ....       0.014 sec  (  0.2%)
Population analysis         ....       0.014 sec  (  0.2%)
Orbital Transformation      ....       0.014 sec  (  0.2%)
Orbital Orthonormalization  ....       0.000 sec  (  0.0%)
DIIS solution               ....       0.072 sec  (  1.2%)
SOSCF solution              ....       0.054 sec  (  0.9%)
Finished LeanSCF after   6.1 sec

Maximum memory used throughout the entire LEANSCF-calculation: 9.7 MB


-------------------------------------------------------------------------------
                          DFT DISPERSION CORRECTION                            
                                                                               
                              DFTD3 V3.1  Rev 1                                
                          USING Becke-Johnson damping                          
-------------------------------------------------------------------------------
The B3LYP functional is recognized
Active option DFTDOPT                   ...         4   

molecular C6(AA) [au] = 1338.114688 


            DFT-D V3
 parameters
 s6 scaling factor         :     1.0000 
 a1 scaling factor         :     0.3981 
 s8 scaling factor         :     1.9889 
 a2 scaling factor         :     4.4211 
 ad hoc parameters k1-k3   :    16.0000     1.3333    -4.0000 

 Edisp/kcal,au: -9.346310165307  -0.014894291727 
 E6   /kcal   :  -4.565365735 
 E8   /kcal   :  -4.780944431 
 % E8         :  51.153282376 

-------------------------   ----------------
Dispersion correction           -0.014894292
-------------------------   ----------------


-------------------------   --------------------
FINAL SINGLE POINT ENERGY      -232.017308238485
-------------------------   --------------------



           ************************************************************
           *        Program running with 6 parallel MPI-processes     *
           *              working on a common directory               *
           ************************************************************
------------------------------------------------------------------------------
                         ORCA SCF GRADIENT CALCULATION
------------------------------------------------------------------------------

Nuc. rep. gradient        (SHARK) ... done (  0.0 sec)
HCore & Overlap gradient  (SHARK) ... done (  0.0 sec)
Split-RIJ-J gradient      (SHARK) ... done (  0.2 sec)
done (  3.0 sec)
XC gradient                       ... done (  0.6 sec)
Dispersion correction             ... done (  0.0 sec)

-------------------
DISPERSION GRADIENT
-------------------

   1   C   :    0.000408316    0.000163431   -0.000038609
   2   C   :    0.000299999    0.000300235    0.000080853
   3   H   :    0.000175585    0.000075061   -0.000073213
   4   H   :    0.000273693    0.000008327   -0.000084611
   5   H   :    0.000212174    0.000027844    0.000032672
   6   C   :   -0.000448254   -0.000000530    0.000109607
   7   O   :   -0.000135138   -0.000049505    0.000012957
   8   C   :   -0.000562875   -0.000254534    0.000091405
   9   H   :   -0.000069850   -0.000274092    0.000003721
  10   H   :   -0.000083412   -0.000207688   -0.000107985
  11   H   :    0.000137198   -0.000143388   -0.000119083
  12   H   :   -0.000260776    0.000140729   -0.000008676
  13   H   :    0.000053340    0.000214108    0.000100960

Difference to translation invariance:
           :   -0.0000000000    0.0000000000    0.0000000000

Difference to rotation invariance:
           :   -0.0000000000    0.0000000000   -0.0000000000

Norm of the Dispersion gradient    ...    0.0012322009
RMS gradient                       ...    0.0001973100
MAX gradient                       ...    0.0005628746

------------------
CARTESIAN GRADIENT
------------------

   1   C   :    0.000034773    0.000036604    0.000125438
   2   C   :    0.000067118   -0.000039338   -0.000113723
   3   H   :   -0.000070623   -0.000025699   -0.000061765
   4   H   :   -0.000027423    0.000029879   -0.000011610
   5   H   :   -0.000008483   -0.000030640    0.000046619
   6   C   :   -0.000022017    0.000154087    0.000078603
   7   O   :    0.000040941   -0.000093345    0.000106141
   8   C   :   -0.000032247   -0.000019137   -0.000123664
   9   H   :   -0.000008965   -0.000005586    0.000031713
  10   H   :    0.000042261   -0.000020375   -0.000028279
  11   H   :   -0.000032038    0.000077607    0.000045427
  12   H   :    0.000020555   -0.000030587   -0.000053114
  13   H   :   -0.000003852   -0.000033471   -0.000041788

Difference to translation invariance:
           :    0.0000000000    0.0000000000    0.0000000001

Difference to rotation invariance:
           :    0.0000174898   -0.0000141277   -0.0000191534

Norm of the Cartesian gradient     ...    0.0003751632
RMS gradient                       ...    0.0000600742
MAX gradient                       ...    0.0001540870

-------
TIMINGS
-------

Total SCF gradient time     ....        3.866 sec

Densities                   ....       0.000 sec  (  0.0%)
One electron gradient       ....       0.027 sec  (  0.7%)
RI-J Coulomb gradient       ....       0.182 sec  (  4.7%)
COSX gradient               ....       2.990 sec  ( 77.3%)
XC gradient                 ....       0.618 sec  ( 16.0%)

Maximum memory used throughout the entire SCFGRAD-calculation: 27.4 MB


           ************************************************************
           *        Program running with 6 parallel MPI-processes     *
           *              working on a common directory               *
           ************************************************************

------------------------------------------------------------------------------
                              ORCA PROPERTY CALCULATIONS
------------------------------------------------------------------------------

GBWName                                 ... orca.gbw
Number of atoms                         ...     13
Number of basis functions               ...    110
Max core memory                         ...   4096 MB

Electric properties:
Dipole moment                           ... YES
Quadrupole moment                       ...  NO
Static polarizability (Dipole/Dipole)   ...  NO
Static polarizability (Dipole/Quad.)    ...  NO
Static polarizability (Quad./Quad.)     ...  NO
Static polarizability (Velocity)        ...  NO
Static hyperpolarizability              ...  NO

Atomic electric properties:
Dipole moment                           ...  NO
Quadrupole moment                       ...  NO
Static polarizability                   ...  NO

Choice of electric origin               ... Center of mass
Position of electric origin             ...    -0.496313     0.160534     0.252408

General magnetic properties:
Magnetizability                         ...  NO

EPR properties:
g-Tensor (aka g-matrix)                 ...  NO
Zero-Field splitting spin-orbit         ...  NO
Zero-field splitting spin-spin          ...  NO
Hyperfine couplings                     ...  NO (   0 nuclei)
Quadrupole couplings                    ...  NO (   0 nuclei)
Contact density                         ...  NO (   0 nuclei)

NMR properties:
Chemical shifts                         ...  NO (   0 nuclei)
Spin-rotation constants                 ...  NO (   0 nuclei)
Spin-spin couplings                     ...  NO (   0 nuclei,    0 pairs)

Choice of magnetic origin               ... GIAO
Position of magnetic origin             ...     0.000000     0.000000     0.000000

Properties with geometric perturbations:
SCF Hessian                             ...  NO
IR spectrum                             ...  NO
VCD spectrum                            ...  NO
X-ray spectroscopy properties:
SCF XES/XAS/RIXS spectra                ...  NO

SCF SOC stabilization energy            ...  NO
Diagonal Born-Oppenheimer correction    ...  NO

-------------
DIPOLE MOMENT
-------------

Method             : SCF
Type of density    : Electron Density
Multiplicity       :   1
Irrep              :   0
Energy             :  -232.0024139467582245 Eh
Basis              : AO
                                X                 Y                 Z
Electronic contribution:     -2.875063349       1.591369709       1.213116004
Nuclear contribution   :      2.878419234      -0.964962010      -1.602668849
                        -----------------------------------------
Total Dipole Moment    :      0.003355886       0.626407700      -0.389552846
                        -----------------------------------------
Magnitude (a.u.)       :      0.737664753
Magnitude (Debye)      :      1.874994794



--------------------
Rotational spectrum 
--------------------
 
Rotational constants in cm-1:             0.296405             0.106814             0.081637 
Rotational constants in MHz :          8885.991178          3202.214186          2447.418025 

Dipole components along the rotational axes: 
x,y,z [a.u.] :    -0.171794     0.464340    -0.546831 
x,y,z [Debye]:    -0.436666     1.180259    -1.389934 

 

Dipole moment calculation done in   0.0 sec 

Maximum memory used throughout the entire PROP-calculation: 5.6 MB

--------------------------------
SUGGESTED CITATIONS FOR THIS RUN
--------------------------------

Below you find a list of papers that are relevant to this ORCA run
We neither can nor want to force you to cite these papers, but we appreciate if you do
You receive ORCA, which is the product of decades of hard work by many enthusiastic individuals, for free
The only thing we kindly ask in return is that you cite our papers,
We deeply appreciate it, if you show your appreciation for ORCA by not just citing the generic ORCA reference.

Please note that relegating all ORCA citations to the supporting information does *not* help us.
SI sections are not indexed - citations you put there will not count into any citation statistics
But we need these citations in order to attract the funding resources that allow us to do what we are doing

Therefore, if you are a happy ORCA user, please consider citing a few of the papers listed below in the main body of your paper

In addition to the list printed below, the program has created the file orca.bibtex that contains the list in bibtex format
You can import this file easily into all common literature databanks and citation aid programs


List of essential papers. We consider these as the minimum necessary citations

  1. Neese, F.
     Software update: the ORCA program system, version 6.0
     WIRES Comput. Molec. Sci. 2025 15(1), e70019
     doi.org/10.1002/wcms.7019

List of papers to cite with high priority. The work reported in these papers was absolutely
necessary for this run to complete.
Our perspective: the developers of density functionals and basis sets usually get cited in chemistry papers
Good! But without the algorithms to do something with them, the functionals or basis sets would not do anything.
Hence, in our opinion, the algorithm design and method developments papers are equally worthy of getting cited

  1. Neese, F.
     An improvement of the resolution of the identity approximation for the formation of the Coulomb matrix
     J. Comp. Chem. 2003 24(14), 1740-1747
     doi.org/10.1002/jcc.10318
  2. Neese, F.; Wennmohs, F.; Hansen, A.; Becker, U.
     Efficient, approximate and parallel Hartree-Fock and hybrid DFT calculations. A 'chain-of-spheres' algorithm for the Hartree-Fock exchange
     Chem. Phys. 2009 356(1-3), 98-109
     doi.org/10.1016/j.chemphys.2008.10.036
  3. Grimme, S.; Antony, J.; Ehrlich, S.; Krieg, H.
     A consistent and accurate ab initio parametrization of density functional dispersion correction (DFT-D) for the 94 elements H-Pu
     J. Chem. Phys. 2010 132 , 154104
     doi.org/10.1063/1.3382344
  4. Grimme, S.; Ehrlich, S.; Goerigk, L.
     Effect of the damping function in dispersion corrected density functional theory
     J. Comput. Chem. 2011 32(7), 1456-1465
     doi.org/10.1002/jcc.21759
  5. Helmich-Paris, B.; de Souza, B.; Neese, F.; Izsák, R.
     An improved chain of spheres for exchange algorithm
     J. Chem. Phys. 2021 155(10), 104109
     doi.org/10.1063/5.0058766
  6. Neese, F.
     The SHARK Integral Generation and Digestion System
     J. Comp. Chem. 2022 44(3), 381
     doi.org/10.1002/jcc.26942

List of suggested additional citations. These are papers that are important in the 'surrounding' of 
of this run, or papers that preceded the highly important papers. If you like your results we are grateful for a citation.

  1. Izsak, R.; Neese, F.
     An overlap fitted chain of spheres exchange method
     J. Chem. Phys. 2011 135 , 144105
     doi.org/10.1063/1.3646921
  2. Izsak, R.; Hansen, A.; Neese, F.
     The resolution of identity and chain of spheres approximations for the LPNO-CCSD singles Fock term
     Molec. Phys. 2012 110 , 2413-2417
     doi.org/10.1080/00268976.2012.687466
  3. Neese, F.
     The ORCA program system
     WIRES Comput. Molec. Sci. 2012 2(1), 73-78
     doi.org/10.1002/wcms.81
  4. Izsak, R.; Neese, F.; Klopper, W.
     Robust fitting techniques in the chain of spheres approximation to the Fock exchange: The role of the complementary space
     J. Chem. Phys. 2013 139 , 
     doi.org/10.1063/1.4819264
  5. Neese, F.
     Software update: the ORCA program system, version 4.0
     WIRES Comput. Molec. Sci. 2018 8(1), 1-6
     doi.org/10.1002/wcms.1327
  6. Neese, F.; Wennmohs, F.; Becker, U.; Riplinger, C.
     The ORCA quantum chemistry program package
     J. Chem. Phys. 2020 152(22), 224108
     doi.org/10.1063/5.0004608
  7. Neese, F.
     Software update: The ORCA program system—Version 5.0
     WIRES Comput. Molec. Sci. 2022 12(1), e1606
     doi.org/10.1002/wcms.1606

List of optional additional citations

  1. Neese, F.
     Approximate second-order SCF convergence for spin unrestricted wavefunctions
     Chem. Phys. Lett. 2000 325(1-3), 93-98
     doi.org/10.1016/s0009-2614(00)00662-x

Timings for individual modules:

Sum of individual times          ...       13.005 sec (=   0.217 min)
Startup calculation              ...        1.175 sec (=   0.020 min)   9.0 %
SCF iterations                   ...        7.054 sec (=   0.118 min)  54.2 %
Property calculations            ...        0.429 sec (=   0.007 min)   3.3 %
SCF Gradient evaluation          ...        4.347 sec (=   0.072 min)  33.4 %
                             ****ORCA TERMINATED NORMALLY****
TOTAL RUN TIME: 0 days 0 hours 0 minutes 13 seconds 564 msec
