
                                 *****************
                                 * O   R   C   A *
                                 *****************

                                            #,                                       
                                            ###                                      
                                            ####                                     
                                            #####                                    
                                            ######                                   
                                           ########,                                 
                                     ,,################,,,,,                         
                               ,,#################################,,                 
                          ,,##########################################,,             
                       ,#########################################, ''#####,          
                    ,#############################################,,   '####,        
                  ,##################################################,,,,####,       
                ,###########''''           ''''###############################       
              ,#####''   ,,,,##########,,,,          '''####'''          '####       
            ,##' ,,,,###########################,,,                        '##       
           ' ,,###''''                  '''############,,,                           
         ,,##''                                '''############,,,,        ,,,,,,###''
      ,#''                                            '''#######################'''  
     '                                                          ''''####''''         
             ,#######,   #######,   ,#######,      ##                                
            ,#'     '#,  ##    ##  ,#'     '#,    #''#        ,####,    ,#,          
            ##       ##  ##   ,#'  ##            #'  '#       #'       ,# #          
            ##       ##  #######   ##           ,######,      #####,      #          
            '#,     ,#'  ##    ##  '#,     ,#' ,#      #,     #,   #      #          
             '#######'   ##     ##  '#######'  #'      '#     '####' #    #          



                #########################################################
                #                        -***-                          #
                #          Department of theory and spectroscopy        #
                #                                                       #
                #                      Frank Neese                      #
                #                                                       #
                #     Directorship, Architecture, Infrastructure        #
                #                    SHARK, DRIVERS                     #
                #        Core code/Algorithms in most modules           #
                #                                                       #
                #        Max Planck Institute fuer Kohlenforschung      #
                #                Kaiser Wilhelm Platz 1                 #
                #                 D-45470 Muelheim/Ruhr                 #
                #                      Germany                          #
                #                                                       #
                #                  All rights reserved                  #
                #                        -***-                          #
                #########################################################


                         Program Version 6.1.0  -  RELEASE   -
                                (GIT: $679e74b$)
                          ($2025-06-10 18:02:51 +0200$)


 With contributions from (in alphabetic order):
[Max-Planck-Institut fuer Kohlenforschung]                               
  Daniel Aravena         : Magnetic Suceptibility                        
  Michael Atanasov       : Ab Initio Ligand Field Theory (pilot matlab implementation)
  Alexander A. Auer      : GIAO ZORA, VPT2 properties, NMR spectrum      
  Ute Becker             : All parallelization in ORCA, NUMFREQ, NUMCALC 
  Giovanni Bistoni       : ED, misc. LED, open-shell LED, HFLD           
  Dmytro Bykov           : pre 5.0 version of the SCF Hessian            
  Marcos Casanova-Páez   : Triplet and SCS-CIS(D). UHF-(DLPNO)-IP/EA/STEOM-CCSD. UHF-CVS-IP/STEOM-CCSD   
  Vijay G. Chilkuri      : MRCI spin determinant printing, contributions to CSF-ICE 
  Pauline Colinet        : FMM embedding                                 
  Dipayan Datta          : RHF DLPNO-CCSD density                        
  Achintya Kumar Dutta   : EOM-CC, STEOM-CC                              
  Nicolas Foglia         : Exact transition moments, OPA infrastructure, MCD improvements    
  Dmitry Ganyushin       : Spin-Orbit,Spin-Spin,Magnetic field MRCI      
  Miquel Garcia-Rates    : C-PCM and meta-GGA Hessian, CCSD/C-PCM, Gaussian charge scheme 
  Tiago L. C. Gouveia    : GS-ROHF, GS-ROCIS                             
  Yang Guo               : DLPNO-NEVPT2, F12-NEVPT2, CIM, IAO-localization        
  Andreas Hansen         : Spin unrestricted coupled pair/coupled cluster methods 
  Ingolf Harden          : AUTO-CI MPn and infrastructure                
  Benjamin Helmich-Paris : MC-RPA, TRAH-(SCF,CASSCF), AVAS, COSX integrals, SCF dyn. polar., MC-PDFT, srDFT 
  Lee Huntington         : MR-EOM, pCC                                   
  Robert Izsak           : Overlap fitted RIJCOSX, COSX-SCS-MP3, EOM     
  Riya Kayal             : Wick's Theorem for AUTO-CI, AUTO-CI UHF-CCSDT 
  Emily Kempfer          : AUTO-CI RHF CISDT and CCSDT, approximate NEVPT4
  Christian Kollmar      : KDIIS, OOCD, Brueckner-CCSD(T), CCSD density, CASPT2, CASPT2-K, improved NEVPT2 
  Axel Koslowski         : Symmetry handling                             
  Simone Kossmann        : meta-GGA functionals, TD-DFT gradient, OOMP2, (MP2 Hessian; deprecated post 5.0) 
  Lucas Lang             : DCDCAS, Hyperfine gauge corrections, ICE-SOC+SSC
  Marvin Lechner         : AUTO-CI (C++ implementation), FIC-MRCC        
  Spencer Leger          : CASSCF response                               
  Dagmar Lenk            : GEPOL surface, SMD, ORCA-2-JSON               
  Dimitrios Liakos       : Extrapolation schemes; Compound Job, Property file
  Dimitrios Manganas     : Further ROCIS development; embedding schemes. LFT, Crystal Embedding 
  Dimitrios Pantazis     : SARC Basis sets                               
  Anastasios Papadopoulos: AUTO-CI, single reference methods and gradients 
  Taras Petrenko         : pre 6.0 DFT Hessian and TD-DFT gradient,  ECA, NRVS 
  Petra Pikulova         : Analytic Raman intensities                    
  Peter Pinski           : DLPNO-MP2, DLPNO-MP2 Gradient                 
  Shashank Vittal Rao    : ES-AILFT, MagRelax                            
  Christoph Reimann      : Effective Core Potentials                     
  Marius Retegan         : Local ZFS, SOC                                
  Christoph Riplinger    : Optimizer, TS searches, QM/MM, DLPNO-CCSD(T), (RO)-DLPNO pert. Triples 
  Michael Roemelt        : Original ROCIS implementation, recursive CI coupling coefficients
  Masaaki Saitow         : Open-shell DLPNO-CCSD energy and density      
  Barbara Sandhoefer     : DKH picture change effects                    
  Yorick L. A. Schmerwitz: GMF and freeze-and-release deltaSCF, NEB S-IDPP initial path                    
  Kantharuban Sivalingam : CASSCF convergence/infrastructure, NEVPT2, NEVPT3, NEVPT4(SD), FIC-MRCI and CEPA variants
  Bernardo de Souza      : ESD, SOC TD-DFT                               
  Georgi L. Stoychev     : AutoAux, RI-MP2 NMR, DLPNO-MP2 response, X2C  
  Van Anh Tran           : RI-MP2 g-tensors                              
  Willem Van den Heuvel  : Paramagnetic NMR                              
  Zikuan Wang            : NOTCH, Electric field optimization            
  Frank Wennmohs         : Technical directorship and infrastructure     
  Hang Xu                : AUTO-CI-Response properties                   
                                                                         
[FACCTs GmbH]                                                            
  Markus Bursch, Nicolas Foglia, Miquel Garcia-Rates, Ingolf Harden, Hagen Neugebauer, Anastasios Papadopoulos, 
  Christoph Riplinger, Bernardo de Souza, Georgi L. Stoychev                                                    
                                                                 
  APM, various basis sets, CI-OPT, improved COSX, DLPNO-Multilevel,           
  DOCKER, DRACO, updates on ESD, Fragmentator, GOAT, IRC, LR-CPCM, L-BFGS, MBIS, meta-GGA TD-DFT gradient, ML-optimized integration grids, 
  MM, NACMEs, nearIR, NEB, NEB-TS, NL-DFT gradient (VV10), 2- and 3-layer-ONIOM, interface openCOSMO-RS, QMMM,   
  Crystal-QMMM, RESP, rigid body optimization, SF, symmetry and pop. for TD-DFT, various functionals, SOLVATOR                                   
                                                                         
[Other institutions]                                                     
  V. Asgeirsson          : NEB                                           
  Christoph Bannwarth    : sTDA-DFT, sTD-DFT, PBEh-3c, B97-3c, D3        
  Giovanni Bistoni       : ETS/NOCV, ADLD/ADEX, COVALED                  
  Martin Brehm           : Molecular dynamics                            
  Ronald Cardenas        : ETS/NOCV                                      
  Martina Colucci        : COVALED                                       
  Sebastian Ehlert       : rSCAN, r2SCAN, r2SCAN-3c, D4, dhf basis sets  
  Marvin Friede          : D4 for Fr, Ra, Ac-Lr                          
  Lars Goerigk           : TD-DFT with DH, B97 family of functionals     
  Stefan Grimme          : VdW corrections, initial TS optimization, DFT functionals, gCP, sTDA/sTD-DF 
  Waldemar Hujo          : DFT-NL                                        
  H. Jonsson             : NEB                                           
  Holger Kruse           : gCP                                           
  Marcel Mueller         : wB97X-3c, vDZP basis set                      
  Hagen Neugebauer       : wr2SCAN, Native XTB                           
  Gianluca Regni         : ADLD/ADEX                                     
  Tobias Risthaus        : pre 6.0 range-separated hybrid DFT and stability analysis
  Lukas Wittmann         : regularized MP2, r2SCAN double-hybrids, wr2SCAN        
                                                                         
We gratefully acknowledge several colleagues who have allowed us to      
interface, adapt or use parts of their codes:                            
  Ed Valeev, F. Pavosevic, A. Kumar             : LibInt (2-el integral package), F12 methods 
  Garnet Chan, S. Sharma, J. Yang, R. Olivares  : DMRG                   
  Ulf Ekstrom                                   : XCFun DFT Library      
  Mihaly Kallay                                 : mrcc  (arbitrary order and MRCC methods)
  Frank Weinhold                                : gennbo (NPA and NBO analysis)           
  Simon Mueller                                 : openCOSMO-RS                            
  Christopher J. Cramer and Donald G. Truhlar   : smd solvation model                     
  S Lehtola, MJT Oliveira, MAL Marques          : LibXC Library                           
  Liviu Ungur et al                             : ANISO software                          


 Your calculation uses the libint2 library for the computation of 2-el integrals
 For citations please refer to: http://libint.valeyev.net

 Your ORCA version has been built with support for libXC version: 7.0.0
 For citations please refer to: https://libxc.gitlab.io

 This ORCA versions uses:
   CBLAS   interface :  Fast vector & matrix operations
   LAPACKE interface :  Fast linear algebra routines
   SCALAPACK package :  Parallel linear algebra routines
   Shared memory     :  Shared parallel matrices
   BLAS/LAPACK       :  OpenBLAS 0.3.29  USE64BITINT DYNAMIC_ARCH NO_AFFINITY Zen SINGLE_THREADED
        Core in use  :  Zen
   Copyright (c) 2011-2014, The OpenBLAS Project


  ***********************************
  * Starting time: Wed Sep 10 13:37:10 2025
  * Host name:     wyk-Server
  * Process ID:    2303893
  * Working dir.:  /home/wyk/Documents/code/openQDC/MGMR/singlepointcalc/93/react
  ***********************************

Your calculation utilizes the atom-pairwise dispersion correction
with the Becke-Johnson damping scheme (D3BJ)


Warning: RI is on but no J-basis has been assigned. Assigning Def2/J (nothing to worry about!)
================================================================================

----- Orbital basis set information -----
Your calculation utilizes the basis: def2-SVP
   F. Weigend and R. Ahlrichs, Phys. Chem. Chem. Phys. 7, 3297 (2005).

----- AuxJ basis set information -----
Your calculation utilizes the auxiliary basis: def2/J
   H-Rn: F. Weigend, Phys. Chem. Chem. Phys. 8, 1057 (2006).
   Fr-Lr: K. Eichkorn, F. Weigend, O. Treutler, R. Ahlrichs; Theor. Chem. Acc. 97, 119 (1997).

================================================================================
                                        WARNINGS
                       Please study these warnings very carefully!
================================================================================


================================================================================
                                       INPUT FILE
================================================================================
NAME = orca.inp
|  1> ! B3LYP def2-SVP d3 EnGrad 
|  2> %pal nprocs 6 end 
|  3> *xyz 0 1 
|  4> C   2.87087435796239 -0.75380068286573 0.99612604814001
|  5> C   1.69021598179407 -0.23820437011537 0.2224399303794
|  6> H   3.44099023659602 0.06015604981042 1.4611570327209
|  7> H   3.51895203720288 -1.32273344981821 0.31230539457835
|  8> H   2.50833447038496 -1.44909205060165 1.76833149802813
|  9> O   1.6258410707208 1.10618013558865 0.28057344155685
| 10> O   0.51872584011274 1.62865989728378 -0.4543499543285
| 11> H   0.03929898297672 0.80715243314818 -0.73192537560752
| 12> O   0.87723370039934 -0.89669218099659 -0.38323321059424
| 13> C   -2.42886593885868 0.95004522471131 -0.70220210167211
| 14> C   -2.29756366915457 -0.25537683809728 -1.28078861540308
| 15> C   -2.29947182799702 -1.59834887446919 -0.61303579847334
| 16> H   -2.16905945801051 -0.27593730147826 -2.37053908303506
| 17> H   -2.52271266855153 -1.53857824386743 0.46197071638865
| 18> H   -1.3134302820256 -2.07896744207325 -0.72273382572061
| 19> H   -3.04444741789773 -2.2660448834709 -1.07944678069576
| 20> C   -2.59493383930075 1.25255792080255 0.75819795042339
| 21> H   -2.3976056802882 1.82900851971252 -1.35850617225411
| 22> H   -2.69634692276232 0.34735391551419 1.37389047538248
| 23> H   -3.48280452026039 1.88493067573332 0.93164311024617
| 24> H   -1.72225445304253 1.81920454554897 1.12609731994
| 25> *
| 26> 
| 27>                          ****END OF INPUT****
================================================================================

                     *******************************
                     * Energy+Gradient Calculation *
                     *******************************

---------------------------------
CARTESIAN COORDINATES (ANGSTROEM)
---------------------------------
  C      2.870874   -0.753801    0.996126
  C      1.690216   -0.238204    0.222440
  H      3.440990    0.060156    1.461157
  H      3.518952   -1.322733    0.312305
  H      2.508334   -1.449092    1.768331
  O      1.625841    1.106180    0.280573
  O      0.518726    1.628660   -0.454350
  H      0.039299    0.807152   -0.731925
  O      0.877234   -0.896692   -0.383233
  C     -2.428866    0.950045   -0.702202
  C     -2.297564   -0.255377   -1.280789
  C     -2.299472   -1.598349   -0.613036
  H     -2.169059   -0.275937   -2.370539
  H     -2.522713   -1.538578    0.461971
  H     -1.313430   -2.078967   -0.722734
  H     -3.044447   -2.266045   -1.079447
  C     -2.594934    1.252558    0.758198
  H     -2.397606    1.829009   -1.358506
  H     -2.696347    0.347354    1.373890
  H     -3.482805    1.884931    0.931643
  H     -1.722254    1.819205    1.126097

----------------------------
CARTESIAN COORDINATES (A.U.)
----------------------------
  NO LB      ZA    FRAG     MASS         X           Y           Z
   0 C     6.0000    0    12.011    5.425166   -1.424477    1.882405
   1 C     6.0000    0    12.011    3.194045   -0.450141    0.420351
   2 H     1.0000    0     1.008    6.502529    0.113678    2.761187
   3 H     1.0000    0     1.008    6.649856   -2.499604    0.590172
   4 H     1.0000    0     1.008    4.740065   -2.738387    3.341662
   5 O     8.0000    0    15.999    3.072394    2.090378    0.530207
   6 O     8.0000    0    15.999    0.980250    3.077721   -0.858597
   7 H     1.0000    0     1.008    0.074264    1.525297   -1.383139
   8 O     8.0000    0    15.999    1.657731   -1.694503   -0.724206
   9 C     6.0000    0    12.011   -4.589891    1.795325   -1.326970
  10 C     6.0000    0    12.011   -4.341766   -0.482592   -2.420340
  11 C     6.0000    0    12.011   -4.345372   -3.020442   -1.158470
  12 H     1.0000    0     1.008   -4.098928   -0.521446   -4.479670
  13 H     1.0000    0     1.008   -4.767236   -2.907492    0.872998
  14 H     1.0000    0     1.008   -2.482024   -3.928679   -1.365769
  15 H     1.0000    0     1.008   -5.753172   -4.282204   -2.039859
  16 C     6.0000    0    12.011   -4.903714    2.366991    1.432786
  17 H     1.0000    0     1.008   -4.530818    3.456325   -2.567205
  18 H     1.0000    0     1.008   -5.095357    0.656404    2.596277
  19 H     1.0000    0     1.008   -6.581547    3.562003    1.760550
  20 H     1.0000    0     1.008   -3.254589    3.437798    2.128016

--------------------------------
INTERNAL COORDINATES (ANGSTROEM)
--------------------------------
 C      0   0   0     0.000000000000     0.00000000     0.00000000
 C      1   0   0     1.502792057390     0.00000000     0.00000000
 H      1   2   0     1.097183436969   111.83373979     0.00000000
 H      1   2   3     1.100590685895   108.66908861   238.46849602
 H      1   2   3     1.100530105435   108.61396311   121.61730909
 O      2   1   3     1.347179770288   110.95939468     0.48202798
 O      6   2   1     1.427866111736   112.33353369   179.55772948
 H      7   6   2     0.990844457759   102.47258771     5.87432400
 O      2   1   3     1.208878133080   126.82756418   180.69224724
 C      8   7   6     2.472476471935   115.57733182   142.18174111
 C     10   8   7     1.343519627473    81.10699894   172.71824857
 C     11  10   8     1.499823775003   127.69970233    93.62378211
 H     11  10   8     1.097493574760   117.12047341   273.87539041
 H     12  11  10     1.099567191294   112.75931419     5.53569909
 H     12  11  10     1.102409086995   110.17791656   245.28698783
 H     12  11  10     1.103787023987   110.75545885   126.68723706
 C     10   8   7     1.500620135482    97.69058399   299.78227302
 H     10   8   7     1.097400888822    90.61101232    55.18775970
 H     17  10   8     1.099434486442   112.90653762   270.05390242
 H     17  10   8     1.103763050094   110.94338174   148.62097924
 H     17  10   8     1.103633840831   109.90218850    30.69961524

---------------------------
INTERNAL COORDINATES (A.U.)
---------------------------
 C      0   0   0     0.000000000000     0.00000000     0.00000000
 C      1   0   0     2.839865424699     0.00000000     0.00000000
 H      1   2   0     2.073376214546   111.83373979     0.00000000
 H      1   2   3     2.079814981887   108.66908861   238.46849602
 H      1   2   3     2.079700501408   108.61396311   121.61730909
 O      2   1   3     2.545800819004   110.95939468     0.48202798
 O      6   2   1     2.698275907089   112.33353369   179.55772948
 H      7   6   2     1.872424666479   102.47258771     5.87432400
 O      2   1   3     2.284448600806   126.82756418   180.69224724
 C      8   7   6     4.672303404521   115.57733182   142.18174111
 C     10   8   7     2.538884151473    81.10699894   172.71824857
 C     11  10   8     2.834256183900   127.69970233    93.62378211
 H     11  10   8     2.073962290035   117.12047341   273.87539041
 H     12  11  10     2.077880857390   112.75931419     5.53569909
 H     12  11  10     2.083251261967   110.17791656   245.28698783
 H     12  11  10     2.085855185512   110.75545885   126.68723706
 C     10   8   7     2.835761087109    97.69058399   299.78227302
 H     10   8   7     2.073787138996    90.61101232    55.18775970
 H     17  10   8     2.077630081564   112.90653762   270.05390242
 H     17  10   8     2.085809881419   110.94338174   148.62097924
 H     17  10   8     2.085565711298   109.90218850    30.69961524

---------------------
BASIS SET INFORMATION
---------------------
There are 3 groups of distinct atoms

 Group   1 Type C   : 7s4p1d contracted to 3s2p1d pattern {511/31/1}
 Group   2 Type H   : 4s1p contracted to 2s1p pattern {31/1}
 Group   3 Type O   : 7s4p1d contracted to 3s2p1d pattern {511/31/1}

Atom   0C    basis set group =>   1
Atom   1C    basis set group =>   1
Atom   2H    basis set group =>   2
Atom   3H    basis set group =>   2
Atom   4H    basis set group =>   2
Atom   5O    basis set group =>   3
Atom   6O    basis set group =>   3
Atom   7H    basis set group =>   2
Atom   8O    basis set group =>   3
Atom   9C    basis set group =>   1
Atom  10C    basis set group =>   1
Atom  11C    basis set group =>   1
Atom  12H    basis set group =>   2
Atom  13H    basis set group =>   2
Atom  14H    basis set group =>   2
Atom  15H    basis set group =>   2
Atom  16C    basis set group =>   1
Atom  17H    basis set group =>   2
Atom  18H    basis set group =>   2
Atom  19H    basis set group =>   2
Atom  20H    basis set group =>   2
---------------------------------
AUXILIARY/J BASIS SET INFORMATION
---------------------------------
There are 3 groups of distinct atoms

 Group   1 Type C   : 12s5p4d2f1g contracted to 6s4p3d1f1g pattern {711111/2111/211/2/1}
 Group   2 Type H   : 5s2p1d contracted to 3s1p1d pattern {311/2/1}
 Group   3 Type O   : 12s5p4d2f1g contracted to 6s4p3d1f1g pattern {711111/2111/211/2/1}

Atom   0C    basis set group =>   1
Atom   1C    basis set group =>   1
Atom   2H    basis set group =>   2
Atom   3H    basis set group =>   2
Atom   4H    basis set group =>   2
Atom   5O    basis set group =>   3
Atom   6O    basis set group =>   3
Atom   7H    basis set group =>   2
Atom   8O    basis set group =>   3
Atom   9C    basis set group =>   1
Atom  10C    basis set group =>   1
Atom  11C    basis set group =>   1
Atom  12H    basis set group =>   2
Atom  13H    basis set group =>   2
Atom  14H    basis set group =>   2
Atom  15H    basis set group =>   2
Atom  16C    basis set group =>   1
Atom  17H    basis set group =>   2
Atom  18H    basis set group =>   2
Atom  19H    basis set group =>   2
Atom  20H    basis set group =>   2


           ************************************************************
           *        Program running with 6 parallel MPI-processes     *
           *              working on a common directory               *
           ************************************************************
------------------------------------------------------------------------------
                             ORCA STARTUP CALCULATIONS
                           -- RI-GTO INTEGRALS CHOSEN --
------------------------------------------------------------------------------
------------------------------------------------------------------------------
                   ___                                                        
                  /   \      - P O W E R E D   B Y -                         
                 /     \                                                     
                 |  |  |   _    _      __       _____    __    __             
                 |  |  |  | |  | |    /  \     |  _  \  |  |  /  |          
                  \  \/   | |  | |   /    \    | | | |  |  | /  /          
                 / \  \   | |__| |  /  /\  \   | |_| |  |  |/  /          
                |  |  |   |  __  | /  /__\  \  |    /   |      \           
                |  |  |   | |  | | |   __   |  |    \   |  |\   \          
                \     /   | |  | | |  |  |  |  | |\  \  |  | \   \       
                 \___/    |_|  |_| |__|  |__|  |_| \__\ |__|  \__/        
                                                                              
                      - O R C A' S   B I G   F R I E N D -                    
                                      &                                       
                       - I N T E G R A L  F E E D E R -                       
                                                                              
 v1 FN, 2020, v2 2021, v3 2022-2024                                           
------------------------------------------------------------------------------


----------------------
SHARK INTEGRAL PACKAGE
----------------------

Number of atoms                             ...     21
Number of basis functions                   ...    186
Number of shells                            ...     90
Maximum angular momentum                    ...      2
Integral batch strategy                     ... SHARK/LIBINT Hybrid
RI-J (if used) integral strategy            ... SPLIT-RIJ (Revised 2003 algorithm where possible)
Printlevel                                  ...      1
Contraction scheme used                     ... SEGMENTED contraction
Prescreening option                         ... SCHWARTZ
   Thresh                                   ... 2.500e-11
   Tcut                                     ... 2.500e-12
   Tpresel                                  ... 2.500e-12 
Coulomb Range Separation                    ... NOT USED
Exchange Range Separation                   ... NOT USED
Multipole approximations                    ... NOT USED
Finite Nucleus Model                        ... NOT USED
CABS basis                                  ... NOT available
Auxiliary Coulomb fitting basis             ... AVAILABLE
   # of basis functions in Aux-J            ...    573
   # of shells in Aux-J                     ...    195
   Maximum angular momentum in Aux-J        ...      4
Auxiliary J/K fitting basis                 ... NOT available
Auxiliary Correlation fitting basis         ... NOT available
Auxiliary 'external' fitting basis          ... NOT available

Checking pre-screening integrals            ... done (  0.0 sec) Dimension = 90
   => SHARK Basis and OBASIS are compatible. Storing Pre-screening
Shell pair information
Shell pair cut-off parameter TPreSel        ...   2.5e-12
Total number of shell pairs                 ...      4095
Shell pairs after pre-screening             ...      3604
Total number of primitive shell pairs       ...     14349
Primitive shell pairs kept                  ...      8930
          la=0 lb=0:   1198 shell pairs
          la=1 lb=0:   1347 shell pairs
          la=1 lb=1:    403 shell pairs
          la=2 lb=0:    392 shell pairs
          la=2 lb=1:    225 shell pairs
          la=2 lb=2:     39 shell pairs

Checking whether 4 symmetric matrices of dimension 186 fit in memory
:Max Core in MB      =   4096.00
 MB in use           =      7.87
 MB left             =   4088.13
 MB needed           =      0.53
 Data fit in memory  = YES
Calculating RI/J V-Matrix + Cholesky decomp.... done (  0.0 sec)
Calculating Nuclear repulsion               ... done (  0.0 sec) ENN=    458.359664061837 Eh

Diagonalization of the overlap matrix:
Smallest eigenvalue                        ... 1.599e-03
Time for diagonalization                   ...    0.005 sec
Threshold for overlap eigenvalues          ... 1.000e-07
Number of eigenvalues below threshold      ... 0
Time for construction of square roots      ...    0.002 sec
Total time needed                          ...    0.009 sec

-------------------
DFT GRID GENERATION
-------------------

General Integration Accuracy     IntAcc      ... 4.388
Radial Grid Type                 RadialGrid  ... OptM3 with GC (2021)
Angular Grid (max. ang.)         AngularGrid ... 4 (Lebedev-302)
Angular grid pruning method      GridPruning ... 4 (adaptive)
Weight generation scheme         WeightScheme... mBecke (2022)
Basis function cutoff            BFCut       ... 1.0000e-11
Integration weight cutoff        WCut        ... 1.0000e-14
Partially contracted basis set               ... off
Rotationally invariant grid construction     ... off
Angular grids for H and He will be reduced by one unit

Total number of grid points                  ...    93049
Total number of batches                      ...     1465
Average number of points per batch           ...       63
Average number of grid points per atom       ...     4431

--------------------
COSX GRID GENERATION
--------------------

GRIDX 1
-------
General Integration Accuracy     IntAcc      ... 3.816
Radial Grid Type                 RadialGrid  ... OptM3 with GC (2021)
Angular Grid (max. ang.)         AngularGrid ... 1 (Lebedev-50)
Angular grid pruning method      GridPruning ... 4 (adaptive)
Weight generation scheme         WeightScheme... mBecke (2022)
Basis function cutoff            BFCut       ... 1.0000e-11
Integration weight cutoff        WCut        ... 1.0000e-14
Partially contracted basis set               ... on
Rotationally invariant grid construction     ... off
Angular grids for H and He will be reduced by one unit

Total number of grid points                  ...    11922
Total number of batches                      ...      106
Average number of points per batch           ...      112
Average number of grid points per atom       ...      568
UseSFitting                                  ... on

GRIDX 2
-------
General Integration Accuracy     IntAcc      ... 4.020
Radial Grid Type                 RadialGrid  ... OptM3 with GC (2021)
Angular Grid (max. ang.)         AngularGrid ... 2 (Lebedev-110)
Angular grid pruning method      GridPruning ... 4 (adaptive)
Weight generation scheme         WeightScheme... mBecke (2022)
Basis function cutoff            BFCut       ... 1.0000e-11
Integration weight cutoff        WCut        ... 1.0000e-14
Partially contracted basis set               ... on
Rotationally invariant grid construction     ... off
Angular grids for H and He will be reduced by one unit

Total number of grid points                  ...    25359
Total number of batches                      ...      210
Average number of points per batch           ...      120
Average number of grid points per atom       ...     1208
UseSFitting                                  ... on

GRIDX 3
-------
General Integration Accuracy     IntAcc      ... 4.338
Radial Grid Type                 RadialGrid  ... OptM3 with GC (2021)
Angular Grid (max. ang.)         AngularGrid ... 3 (Lebedev-194)
Angular grid pruning method      GridPruning ... 4 (adaptive)
Weight generation scheme         WeightScheme... mBecke (2022)
Basis function cutoff            BFCut       ... 1.0000e-11
Integration weight cutoff        WCut        ... 1.0000e-14
Partially contracted basis set               ... on
Rotationally invariant grid construction     ... off
Angular grids for H and He will be reduced by one unit

Total number of grid points                  ...    55454
Total number of batches                      ...      444
Average number of points per batch           ...      124
Average number of grid points per atom       ...     2641
UseSFitting                                  ... on
Grids setup in   1.4 sec
Initializing property integral containers    ... done (  0.0 sec)

SHARK setup successfully completed in   1.5 seconds

Maximum memory used throughout the entire STARTUP-calculation: 25.7 MB


           ************************************************************
           *        Program running with 6 parallel MPI-processes     *
           *              working on a common directory               *
           ************************************************************
-------------------------------------------------------------------------------
                                 ORCA GUESS
                   Start orbitals & Density for SCF / CASSCF
-------------------------------------------------------------------------------

------------
SCF SETTINGS
------------
Hamiltonian:
 Density Functional     Method          .... DFT(GTOs)
 Exchange Functional    Exchange        .... B88
   X-Alpha parameter    XAlpha          ....  0.666667
   Becke's b parameter  XBeta           ....  0.004200
 Correlation Functional Correlation     .... LYP
 LDA part of GGA corr.  LDAOpt          .... VWN-5
 Gradients option       PostSCFGGA      .... off
 Hybrid DFT is turned on
   Fraction HF Exchange ScalHFX         ....  0.200000
   Scaling of DF-GGA-X  ScalDFX         ....  0.720000
   Scaling of DF-GGA-C  ScalDFC         ....  0.810000
   Scaling of DF-LDA-C  ScalLDAC        ....  1.000000
   Perturbative correction              ....  0.000000
   NL short-range parameter             ....  4.800000
 RI-approximation to the Coulomb term is turned on
   Number of AuxJ basis functions       .... 573
   RIJ-COSX (HFX calculated with COS-X)).... on


General Settings:
 Integral files         IntName         .... orca
 Hartree-Fock type      HFTyp           .... RHF
 Total Charge           Charge          ....    0
 Multiplicity           Mult            ....    1
 Number of Electrons    NEL             ....   72
 Basis Dimension        Dim             ....  186
 Nuclear Repulsion      ENuc            ....    458.3596640618 Eh

Convergence Acceleration:
 AO-DIIS                CNVDIIS         .... on
   Start iteration      DIISMaxIt       ....    12
   Startup error        DIISStart       ....  0.200000
   # of expansion vecs  DIISMaxEq       ....     5
   Bias factor          DIISBfac        ....   1.050
   Max. coefficient     DIISMaxC        ....  10.000
 MO-DIIS                CNVKDIIS        .... off
 Trust-Rad. Augm. Hess. CNVTRAH         .... auto
   Auto Start mean grad. ratio tolernc. ....  1.125000
   Auto Start start iteration           ....    50
   Auto Start num. interpolation iter.  ....    10
   Max. Number of Micro iterations      ....    24
   Max. Number of Macro iterations      .... Maxiter - #DIIS iter
   Number of Davidson start vectors     ....     2
   Converg. threshold    (grad. norm)   ....   1.000e-05
   Grad. Scal. Fac. for Micro threshold ....   0.100
   Minimum threshold for Micro iter.    ....   1.000e-02
   NR start threshold (gradient norm)   ....   1.000e-04
   Initial trust radius                 ....   0.400
   Minimum AH scaling param. (alpha)    ....   1.000
   Maximum AH scaling param. (alpha)    .... 1000.000
   Quad. conv. algorithm                .... NR
   White noise on init. David. guess    .... on
   Maximum white noise                  ....   0.010
   Pseudo random numbers                .... off
   Inactive MOs                         .... canonical
   Orbital update algorithm             .... Taylor
   Preconditioner                       .... Diag
   Full preconditioner red. dimension   ....   250
 SOSCF                 CNVSOSCF           .... on
   Start iteration     SOSCFMaxIt         ....   150
   Startup grad/error  SOSCFStart         ....  0.003300
   Hessian update      SOSCFHessUp        .... L-BFGS
   Autom. constraints  SOSCFAutoConstrain .... off
 Level Shifting         CNVShift        .... on
   Level shift para.    LevelShift      ....    0.2500
   Turn off err/grad.   ShiftErr        ....    0.0010
 Zerner damping         CNVZerner       .... off
 Static damping         CNVDamp         .... on
   Fraction old density DampFac         ....    0.7000
   Max. Damping (<1)    DampMax         ....    0.9800
   Min. Damping (>=0)   DampMin         ....    0.0000
   Turn off err/grad.   DampErr         ....    0.1000

SCF Procedure:
 Maximum # iterations   MaxIter         ....   125
 SCF integral mode      SCFMode         .... Direct
   Integral package                     .... SHARK and LIBINT hybrid scheme
 Reset frequency        DirectResetFreq ....    20
 Integral Threshold     Thresh          ....  2.500e-11 Eh
 Primitive CutOff       TCut            ....  2.500e-12 Eh

Convergence Tolerance:
 Convergence Check Mode ConvCheckMode   .... Total+1el-Energy
 Convergence forced     ConvForced      .... 0
 Energy Change          TolE            ....  1.000e-08 Eh
 1-El. energy change                    ....  1.000e-05 Eh
 Orbital Gradient       TolG            ....  1.000e-05
 Orbital Rotation angle TolX            ....  1.000e-05
 DIIS Error             TolErr          ....  5.000e-07

------------------------------
INITIAL GUESS: MODEL POTENTIAL
------------------------------
Loading Hartree-Fock densities                     ... done
Calculating cut-offs                               ... done
Initializing the effective Hamiltonian             ... done
Setting up the integral package (SHARK)            ... done
Starting the Coulomb interaction                   ... done (   0.1 sec)
Making the grid                                    ... done (   0.2 sec)
Mapping shells                                     ... done
Starting the XC term evaluation                    ... done (   0.0 sec)
  promolecular density results
     # of electrons  =     71.992118288
     EX              =    -58.919539194
     EC              =     -2.410916514
     EX+EC           =    -61.330455708
Transforming the Hamiltonian                       ... done (   0.0 sec)
Diagonalizing the Hamiltonian                      ... done (   0.0 sec)
Back transforming the eigenvectors                 ... done (   0.0 sec)
Now organizing SCF variables                       ... done
                      ------------------
                      INITIAL GUESS DONE (   0.3 sec)
                      ------------------
             **** ENERGY FILE WAS UPDATED (orca.en.tmp) ****
Finished Guess after   0.4 sec
Maximum memory used throughout the entire GUESS-calculation: 10.7 MB


           ************************************************************
           *        Program running with 6 parallel MPI-processes     *
           *              working on a common directory               *
           ************************************************************

-------------------------------------------------------------------------------------------
                                      ORCA LEAN-SCF
                              memory conserving SCF solver
-------------------------------------------------------------------------------------------

----------------------------------------D-I-I-S--------------------------------------------
Iteration    Energy (Eh)           Delta-E    RMSDP     MaxDP     DIISErr   Damp  Time(sec)
-------------------------------------------------------------------------------------------
               ***  Starting incremental Fock matrix formation  ***
    1    -460.5337322846305028     0.00e+00  8.25e-03  9.48e-02  2.58e-01  0.700   1.5
    2    -460.6763795667279169    -1.43e-01  5.29e-03  4.98e-02  9.14e-02  0.700   0.8
                               ***Turning on AO-DIIS***
    3    -460.7288571585956447    -5.25e-02  2.12e-03  1.75e-02  3.46e-02  0.700   0.8
    4    -460.7616473320265982    -3.28e-02  3.35e-03  1.98e-02  1.54e-02  0.000   0.8
    5    -460.8337132796554556    -7.21e-02  7.52e-04  6.27e-03  6.83e-03  0.000   0.8
                              *** Initializing SOSCF ***
---------------------------------------S-O-S-C-F--------------------------------------
Iteration    Energy (Eh)           Delta-E    RMSDP     MaxDP     MaxGrad    Time(sec)
--------------------------------------------------------------------------------------
    6    -460.8342028229669154    -4.90e-04  2.44e-04  1.48e-03  1.90e-03     0.8
               *** Restarting incremental Fock matrix formation ***
    7    -460.8343230448576264    -1.20e-04  1.89e-04  1.78e-03  4.07e-04     1.5
    8    -460.8343168453268959     6.20e-06  8.42e-05  1.27e-03  7.80e-04     1.1
    9    -460.8343282898102302    -1.14e-05  3.14e-05  3.26e-04  7.03e-05     1.1
   10    -460.8343280661173935     2.24e-07  1.82e-05  2.13e-04  1.53e-04     1.0
   11    -460.8343284638065711    -3.98e-07  1.18e-05  1.42e-04  4.79e-05     0.9
   12    -460.8343284330472329     3.08e-08  7.34e-06  7.50e-05  5.26e-05     0.8
   13    -460.8343284868490741    -5.38e-08  1.31e-06  2.16e-05  5.19e-06     0.8
   14    -460.8343284807620535     6.09e-09  8.25e-07  1.47e-05  9.59e-06     0.7
                 **** Energy Check signals convergence ****

               *****************************************************
               *                     SUCCESS                       *
               *           SCF CONVERGED AFTER  14 CYCLES          *
               *****************************************************

Recomputing exchange energy using gridx3       ... done (    2.285 sec)
Old exchange energy                            :    -11.962436946 Eh
New exchange energy                            :    -11.962467825 Eh
Exchange energy change after final integration :     -0.000030880 Eh
Total energy after final integration           :   -460.834359367 Eh
             **** ENERGY FILE WAS UPDATED (orca.en.tmp) ****

----------------
TOTAL SCF ENERGY
----------------

Total Energy       :       -460.83435936684549 Eh          -12539.94044 eV

Components:
Nuclear Repulsion  :        458.35966406183701 Eh           12472.60055 eV
Electronic Energy  :       -919.19399254884672 Eh          -25012.54015 eV
One Electron Energy:      -1536.06397973470371 Eh          -41798.42588 eV
Two Electron Energy:        616.86998718585698 Eh           16785.88573 eV

Virial components:
Potential Energy   :       -917.55062723727747 Eh          -24967.82191 eV
Kinetic Energy     :        456.71626787043192 Eh           12427.88147 eV
Virial Ratio       :          2.00901673924517

DFT components:
N(Alpha)           :       36.000003937776 electrons
N(Beta)            :       36.000003937776 electrons
N(Total)           :       72.000007875551 electrons
E(X)               :      -47.563936877154 Eh       
E(C)               :       -2.850997060844 Eh       
E(XC)              :      -50.414933937999 Eh       

---------------
SCF CONVERGENCE
---------------

  Last Energy change         ...   -6.0870e-09  Tolerance :   1.0000e-08
  Last MAX-Density change    ...    1.4681e-05  Tolerance :   1.0000e-07
  Last RMS-Density change    ...    8.2482e-07  Tolerance :   5.0000e-09
  Last DIIS Error            ...    1.9032e-03  Tolerance :   5.0000e-07
  Last Orbital Gradient      ...    9.5945e-06  Tolerance :   1.0000e-05
  Last Orbital Rotation      ...    1.2542e-05  Tolerance :   1.0000e-05


----------------
ORBITAL ENERGIES
----------------

  NO   OCC          E(Eh)            E(eV) 
   0   2.0000     -19.233032      -523.3574 
   1   2.0000     -19.192681      -522.2594 
   2   2.0000     -19.142724      -520.9000 
   3   2.0000     -10.331053      -281.1222 
   4   2.0000     -10.216845      -278.0145 
   5   2.0000     -10.179609      -277.0012 
   6   2.0000     -10.178625      -276.9745 
   7   2.0000     -10.175904      -276.9004 
   8   2.0000     -10.172669      -276.8124 
   9   2.0000      -1.164009       -31.6743 
  10   2.0000      -1.045347       -28.4453 
  11   2.0000      -0.924886       -25.1674 
  12   2.0000      -0.782454       -21.2917 
  13   2.0000      -0.753678       -20.5086 
  14   2.0000      -0.706861       -19.2347 
  15   2.0000      -0.640413       -17.4265 
  16   2.0000      -0.623285       -16.9604 
  17   2.0000      -0.519479       -14.1358 
  18   2.0000      -0.512802       -13.9541 
  19   2.0000      -0.498646       -13.5688 
  20   2.0000      -0.497273       -13.5315 
  21   2.0000      -0.470239       -12.7958 
  22   2.0000      -0.433884       -11.8066 
  23   2.0000      -0.427717       -11.6388 
  24   2.0000      -0.414159       -11.2698 
  25   2.0000      -0.409051       -11.1308 
  26   2.0000      -0.405981       -11.0473 
  27   2.0000      -0.392920       -10.6919 
  28   2.0000      -0.388813       -10.5801 
  29   2.0000      -0.374902       -10.2016 
  30   2.0000      -0.364644        -9.9225 
  31   2.0000      -0.355334        -9.6691 
  32   2.0000      -0.326964        -8.8971 
  33   2.0000      -0.306598        -8.3430 
  34   2.0000      -0.279172        -7.5967 
  35   2.0000      -0.240222        -6.5368 
  36   0.0000      -0.007664        -0.2085 
  37   0.0000       0.012381         0.3369 
  38   0.0000       0.030139         0.8201 
  39   0.0000       0.059550         1.6204 
  40   0.0000       0.076286         2.0758 
  41   0.0000       0.088198         2.4000 
  42   0.0000       0.109197         2.9714 
  43   0.0000       0.112854         3.0709 
  44   0.0000       0.126542         3.4434 
  45   0.0000       0.134924         3.6715 
  46   0.0000       0.143074         3.8932 
*Only the first 10 virtual orbitals were printed.

                    ********************************
                    * MULLIKEN POPULATION ANALYSIS *
                    ********************************

-----------------------
MULLIKEN ATOMIC CHARGES
-----------------------
   0 C :    0.034538
   1 C :    0.139182
   2 H :    0.046305
   3 H :    0.059331
   4 H :    0.058301
   5 O :   -0.146992
   6 O :   -0.139507
   7 H :    0.202989
   8 O :   -0.246344
   9 C :   -0.134275
  10 C :   -0.106544
  11 C :    0.070918
  12 H :   -0.004365
  13 H :   -0.001389
  14 H :    0.038059
  15 H :    0.012541
  16 C :    0.074346
  17 H :    0.000137
  18 H :    0.002625
  19 H :    0.016583
  20 H :    0.023562
Sum of atomic charges:   -0.0000000

--------------------------------
MULLIKEN REDUCED ORBITAL CHARGES
--------------------------------
  0 C s       :     2.953207  s :     2.953207
      pz      :     1.007001  p :     2.987457
      px      :     0.970063
      py      :     1.010393
      dz2     :     0.001720  d :     0.024798
      dxz     :     0.007338
      dyz     :     0.006829
      dx2y2   :     0.002769
      dxy     :     0.006142

  1 C s       :     3.084112  s :     3.084112
      pz      :     0.876389  p :     2.645352
      px      :     0.948629
      py      :     0.820333
      dz2     :     0.019078  d :     0.131354
      dxz     :     0.015941
      dyz     :     0.024946
      dx2y2   :     0.044403
      dxy     :     0.026986

  2 H s       :     0.930488  s :     0.930488
      pz      :     0.006218  p :     0.023206
      px      :     0.006840
      py      :     0.010148

  3 H s       :     0.916619  s :     0.916619
      pz      :     0.008345  p :     0.024050
      px      :     0.008095
      py      :     0.007610

  4 H s       :     0.917691  s :     0.917691
      pz      :     0.009743  p :     0.024008
      px      :     0.005414
      py      :     0.008851

  5 O s       :     3.793427  s :     3.793427
      pz      :     1.603579  p :     4.329435
      px      :     1.399459
      py      :     1.326397
      dz2     :     0.003267  d :     0.024130
      dxz     :     0.005085
      dyz     :     0.004042
      dx2y2   :     0.007408
      dxy     :     0.004327

  6 O s       :     3.788450  s :     3.788450
      pz      :     1.641883  p :     4.332836
      px      :     1.229685
      py      :     1.461267
      dz2     :     0.002357  d :     0.018222
      dxz     :     0.003654
      dyz     :     0.002975
      dx2y2   :     0.003641
      dxy     :     0.005595

  7 H s       :     0.729202  s :     0.729202
      pz      :     0.017008  p :     0.067809
      px      :     0.019215
      py      :     0.031586

  8 O s       :     3.757305  s :     3.757305
      pz      :     1.417507  p :     4.470610
      px      :     1.429821
      py      :     1.623281
      dz2     :     0.003290  d :     0.018429
      dxz     :     0.003714
      dyz     :     0.003421
      dx2y2   :     0.003326
      dxy     :     0.004677

  9 C s       :     3.167582  s :     3.167582
      pz      :     0.964506  p :     2.930919
      px      :     1.010534
      py      :     0.955879
      dz2     :     0.008458  d :     0.035774
      dxz     :     0.004431
      dyz     :     0.013625
      dx2y2   :     0.004087
      dxy     :     0.005173

 10 C s       :     3.154045  s :     3.154045
      pz      :     0.925116  p :     2.916627
      px      :     0.997277
      py      :     0.994234
      dz2     :     0.010148  d :     0.035873
      dxz     :     0.001546
      dyz     :     0.009531
      dx2y2   :     0.006291
      dxy     :     0.008357

 11 C s       :     2.926602  s :     2.926602
      pz      :     0.979046  p :     2.973734
      px      :     1.013889
      py      :     0.980798
      dz2     :     0.008069  d :     0.028746
      dxz     :     0.002703
      dyz     :     0.005143
      dx2y2   :     0.004907
      dxy     :     0.007924

 12 H s       :     0.981957  s :     0.981957
      pz      :     0.014152  p :     0.022409
      px      :     0.004775
      py      :     0.003482

 13 H s       :     0.977964  s :     0.977964
      pz      :     0.013551  p :     0.023425
      px      :     0.005512
      py      :     0.004362

 14 H s       :     0.937967  s :     0.937967
      pz      :     0.004887  p :     0.023974
      px      :     0.013192
      py      :     0.005895

 15 H s       :     0.964210  s :     0.964210
      pz      :     0.006289  p :     0.023249
      px      :     0.009283
      py      :     0.007677

 16 C s       :     2.925615  s :     2.925615
      pz      :     0.966217  p :     2.971186
      px      :     1.005234
      py      :     0.999735
      dz2     :     0.007564  d :     0.028854
      dxz     :     0.004413
      dyz     :     0.007187
      dx2y2   :     0.002881
      dxy     :     0.006808

 17 H s       :     0.977480  s :     0.977480
      pz      :     0.007146  p :     0.022382
      px      :     0.004623
      py      :     0.010613

 18 H s       :     0.974002  s :     0.974002
      pz      :     0.006987  p :     0.023374
      px      :     0.005115
      py      :     0.011272

 19 H s       :     0.960161  s :     0.960161
      pz      :     0.004360  p :     0.023256
      px      :     0.010995
      py      :     0.007901

 20 H s       :     0.952665  s :     0.952665
      pz      :     0.005185  p :     0.023772
      px      :     0.011159
      py      :     0.007428



                     *******************************
                     * LOEWDIN POPULATION ANALYSIS *
                     *******************************

----------------------
LOEWDIN ATOMIC CHARGES
----------------------
   0 C :   -0.065285
   1 C :    0.070598
   2 H :    0.043297
   3 H :    0.055623
   4 H :    0.054887
   5 O :   -0.005208
   6 O :   -0.032107
   7 H :    0.057813
   8 O :   -0.177244
   9 C :   -0.054260
  10 C :   -0.046756
  11 C :   -0.060513
  12 H :    0.023006
  13 H :    0.022417
  14 H :    0.035622
  15 H :    0.029559
  16 C :   -0.060792
  17 H :    0.023757
  18 H :    0.022964
  19 H :    0.031332
  20 H :    0.031292

-------------------------------
LOEWDIN REDUCED ORBITAL CHARGES
-------------------------------
  0 C s       :     2.843877  s :     2.843877
      pz      :     1.056485  p :     3.154144
      px      :     1.032209
      py      :     1.065449
      dz2     :     0.003934  d :     0.067264
      dxz     :     0.020396
      dyz     :     0.018377
      dx2y2   :     0.007401
      dxy     :     0.017156

  1 C s       :     2.854575  s :     2.854575
      pz      :     0.886719  p :     2.784667
      px      :     0.975554
      py      :     0.922395
      dz2     :     0.038593  d :     0.290161
      dxz     :     0.035589
      dyz     :     0.052390
      dx2y2   :     0.103928
      dxy     :     0.059661

  2 H s       :     0.889915  s :     0.889915
      pz      :     0.017806  p :     0.066788
      px      :     0.020594
      py      :     0.028387

  3 H s       :     0.878535  s :     0.878535
      pz      :     0.023256  p :     0.065842
      px      :     0.022069
      py      :     0.020517

  4 H s       :     0.879302  s :     0.879302
      pz      :     0.026355  p :     0.065811
      px      :     0.015051
      py      :     0.024404

  5 O s       :     3.540703  s :     3.540703
      pz      :     1.603757  p :     4.421704
      px      :     1.417961
      py      :     1.399986
      dz2     :     0.006367  d :     0.042801
      dxz     :     0.007458
      dyz     :     0.006501
      dx2y2   :     0.014239
      dxy     :     0.008235

  6 O s       :     3.559102  s :     3.559102
      pz      :     1.646864  p :     4.441151
      px      :     1.272525
      py      :     1.521763
      dz2     :     0.003949  d :     0.031854
      dxz     :     0.007312
      dyz     :     0.004563
      dx2y2   :     0.006041
      dxy     :     0.009988

  7 H s       :     0.752111  s :     0.752111
      pz      :     0.046796  p :     0.190076
      px      :     0.048419
      py      :     0.094860

  8 O s       :     3.540884  s :     3.540884
      pz      :     1.453311  p :     4.604564
      px      :     1.495774
      py      :     1.655480
      dz2     :     0.004205  d :     0.031795
      dxz     :     0.007431
      dyz     :     0.006102
      dx2y2   :     0.004871
      dxy     :     0.009186

  9 C s       :     2.878937  s :     2.878937
      pz      :     1.034383  p :     3.086464
      px      :     0.980462
      py      :     1.071618
      dz2     :     0.022602  d :     0.088859
      dxz     :     0.008346
      dyz     :     0.035938
      dx2y2   :     0.011839
      dxy     :     0.010134

 10 C s       :     2.878435  s :     2.878435
      pz      :     1.042028  p :     3.079098
      px      :     0.972963
      py      :     1.064107
      dz2     :     0.026515  d :     0.089223
      dxz     :     0.003058
      dyz     :     0.026889
      dx2y2   :     0.016689
      dxy     :     0.016072

 11 C s       :     2.833610  s :     2.833610
      pz      :     1.055696  p :     3.153960
      px      :     1.067447
      py      :     1.030817
      dz2     :     0.020397  d :     0.072943
      dxz     :     0.006452
      dyz     :     0.013562
      dx2y2   :     0.012814
      dxy     :     0.019719

 12 H s       :     0.910698  s :     0.910698
      pz      :     0.040512  p :     0.066296
      px      :     0.015012
      py      :     0.010772

 13 H s       :     0.912863  s :     0.912863
      pz      :     0.038674  p :     0.064720
      px      :     0.013489
      py      :     0.012557

 14 H s       :     0.898201  s :     0.898201
      pz      :     0.012197  p :     0.066177
      px      :     0.036590
      py      :     0.017390

 15 H s       :     0.906819  s :     0.906819
      pz      :     0.016687  p :     0.063622
      px      :     0.024817
      py      :     0.022118

 16 C s       :     2.834095  s :     2.834095
      pz      :     1.031897  p :     3.153498
      px      :     1.063266
      py      :     1.058335
      dz2     :     0.020646  d :     0.073198
      dxz     :     0.010452
      dyz     :     0.017594
      dx2y2   :     0.007248
      dxy     :     0.017259

 17 H s       :     0.909509  s :     0.909509
      pz      :     0.022436  p :     0.066734
      px      :     0.014971
      py      :     0.029327

 18 H s       :     0.912112  s :     0.912112
      pz      :     0.020677  p :     0.064924
      px      :     0.012502
      py      :     0.031745

 19 H s       :     0.904983  s :     0.904983
      pz      :     0.012782  p :     0.063685
      px      :     0.029916
      py      :     0.020987

 20 H s       :     0.903410  s :     0.903410
      pz      :     0.015267  p :     0.065298
      px      :     0.030568
      py      :     0.019463



                      *****************************
                      * MAYER POPULATION ANALYSIS *
                      *****************************

  NA   - Mulliken gross atomic population
  ZA   - Total nuclear charge
  QA   - Mulliken gross atomic charge
  VA   - Mayer's total valence
  BVA  - Mayer's bonded valence
  FA   - Mayer's free valence

  ATOM       NA         ZA         QA         VA         BVA        FA
  0 C      5.9655     6.0000     0.0345     3.9095     3.9095    -0.0000
  1 C      5.8608     6.0000     0.1392     4.3175     4.3175     0.0000
  2 H      0.9537     1.0000     0.0463     1.0031     1.0031    -0.0000
  3 H      0.9407     1.0000     0.0593     0.9997     0.9997    -0.0000
  4 H      0.9417     1.0000     0.0583     0.9999     0.9999    -0.0000
  5 O      8.1470     8.0000    -0.1470     2.2047     2.2047    -0.0000
  6 O      8.1395     8.0000    -0.1395     1.9536     1.9536    -0.0000
  7 H      0.7970     1.0000     0.2030     1.0712     1.0712    -0.0000
  8 O      8.2463     8.0000    -0.2463     2.2476     2.2476     0.0000
  9 C      6.1343     6.0000    -0.1343     4.0970     4.0970    -0.0000
 10 C      6.1065     6.0000    -0.1065     4.0992     4.0992     0.0000
 11 C      5.9291     6.0000     0.0709     3.9281     3.9281    -0.0000
 12 H      1.0044     1.0000    -0.0044     0.9774     0.9774     0.0000
 13 H      1.0014     1.0000    -0.0014     0.9984     0.9984    -0.0000
 14 H      0.9619     1.0000     0.0381     1.0135     1.0135    -0.0000
 15 H      0.9875     1.0000     0.0125     0.9841     0.9841    -0.0000
 16 C      5.9257     6.0000     0.0743     3.9226     3.9226    -0.0000
 17 H      0.9999     1.0000     0.0001     0.9777     0.9777    -0.0000
 18 H      0.9974     1.0000     0.0026     0.9977     0.9977    -0.0000
 19 H      0.9834     1.0000     0.0166     0.9856     0.9856    -0.0000
 20 H      0.9764     1.0000     0.0236     1.0102     1.0102    -0.0000

  Mayer bond orders larger than 0.100000
B(  0-C ,  1-C ) :   1.0456 B(  0-C ,  2-H ) :   0.9536 B(  0-C ,  3-H ) :   0.9471 
B(  0-C ,  4-H ) :   0.9482 B(  1-C ,  5-O ) :   1.1563 B(  1-C ,  8-O ) :   1.9862 
B(  5-O ,  6-O ) :   0.9258 B(  6-O ,  7-H ) :   0.8910 B(  9-C , 10-C ) :   1.9260 
B(  9-C , 16-C ) :   1.0857 B(  9-C , 17-H ) :   0.9519 B( 10-C , 11-C ) :   1.0888 
B( 10-C , 12-H ) :   0.9518 B( 11-C , 13-H ) :   0.9591 B( 11-C , 14-H ) :   0.9425 
B( 11-C , 15-H ) :   0.9494 B( 16-C , 18-H ) :   0.9596 B( 16-C , 19-H ) :   0.9507 
B( 16-C , 20-H ) :   0.9441 

-------
TIMINGS
-------

Total SCF time: 0 days 0 hours 0 min 16 sec 

Total time                  ....      16.636 sec
Sum of individual times     ....      15.949 sec  ( 95.9%)

SCF preparation             ....       0.199 sec  (  1.2%)
Fock matrix formation       ....      15.337 sec  ( 92.2%)
  Startup                   ....       0.007 sec  (  0.0% of F)
  Split-RI-J                ....       1.542 sec  ( 10.1% of F)
  Chain of spheres X        ....      11.597 sec  ( 75.6% of F)
  XC integration            ....       2.613 sec  ( 17.0% of F)
    XC Preparation          ....       0.000 sec  (  0.0% of XC)
    Basis function eval.    ....       0.878 sec  ( 33.6% of XC)
    Density eval.           ....       0.484 sec  ( 18.5% of XC)
    XC-Functional eval.     ....       0.150 sec  (  5.8% of XC)
    XC-Potential eval.      ....       0.479 sec  ( 18.3% of XC)
Diagonalization             ....       0.000 sec  (  0.0%)
Density matrix formation    ....       0.052 sec  (  0.3%)
Total Energy calculation    ....       0.026 sec  (  0.2%)
Population analysis         ....       0.018 sec  (  0.1%)
Orbital Transformation      ....       0.030 sec  (  0.2%)
Orbital Orthonormalization  ....       0.000 sec  (  0.0%)
DIIS solution               ....       0.145 sec  (  0.9%)
SOSCF solution              ....       0.143 sec  (  0.9%)
Finished LeanSCF after  16.7 sec

Maximum memory used throughout the entire LEANSCF-calculation: 16.7 MB


-------------------------------------------------------------------------------
                          DFT DISPERSION CORRECTION                            
                                                                               
                              DFTD3 V3.1  Rev 1                                
                          USING Becke-Johnson damping                          
-------------------------------------------------------------------------------
The B3LYP functional is recognized
Active option DFTDOPT                   ...         4   

molecular C6(AA) [au] = 3462.713974 


            DFT-D V3
 parameters
 s6 scaling factor         :     1.0000 
 a1 scaling factor         :     0.3981 
 s8 scaling factor         :     1.9889 
 a2 scaling factor         :     4.4211 
 ad hoc parameters k1-k3   :    16.0000     1.3333    -4.0000 

 Edisp/kcal,au: -16.668642615178  -0.026563170002 
 E6   /kcal   :  -8.319308223 
 E8   /kcal   :  -8.349334392 
 % E8         :  50.090067830 

-------------------------   ----------------
Dispersion correction           -0.026563170
-------------------------   ----------------


-------------------------   --------------------
FINAL SINGLE POINT ENERGY      -460.860922536847
-------------------------   --------------------



           ************************************************************
           *        Program running with 6 parallel MPI-processes     *
           *              working on a common directory               *
           ************************************************************
------------------------------------------------------------------------------
                         ORCA SCF GRADIENT CALCULATION
------------------------------------------------------------------------------

Nuc. rep. gradient        (SHARK) ... done (  0.0 sec)
HCore & Overlap gradient  (SHARK) ... done (  0.1 sec)
Split-RIJ-J gradient      (SHARK) ... done (  0.4 sec)
done (  6.3 sec)
XC gradient                       ... done (  1.5 sec)
Dispersion correction             ... done (  0.0 sec)

-------------------
DISPERSION GRADIENT
-------------------

   1   C   :    0.000252892   -0.000129160    0.000132962
   2   C   :    0.000457703   -0.000009125    0.000068761
   3   H   :    0.000147498   -0.000006444    0.000096363
   4   H   :    0.000154719   -0.000091082    0.000023614
   5   H   :    0.000102421   -0.000101691    0.000123711
   6   O   :    0.000163802    0.000223227   -0.000036183
   7   O   :    0.000461639    0.000368361   -0.000087289
   8   H   :    0.000308926    0.000191449   -0.000107886
   9   O   :    0.000456003   -0.000203777   -0.000087365
  10   C   :   -0.000457591    0.000385520   -0.000142601
  11   C   :   -0.000433981   -0.000221660   -0.000457195
  12   C   :   -0.000301408   -0.000564748   -0.000139833
  13   H   :   -0.000098221   -0.000024602   -0.000275804
  14   H   :   -0.000121611   -0.000298163    0.000092695
  15   H   :   -0.000075732   -0.000339176   -0.000051386
  16   H   :   -0.000083866   -0.000226289   -0.000039094
  17   C   :   -0.000390836    0.000385637    0.000360099
  18   H   :   -0.000132796    0.000190445   -0.000164379
  19   H   :   -0.000147837    0.000094152    0.000289589
  20   H   :   -0.000124855    0.000152497    0.000151453
  21   H   :   -0.000136868    0.000224630    0.000249768

Difference to translation invariance:
           :   -0.0000000000    0.0000000000    0.0000000000

Difference to rotation invariance:
           :   -0.0000000000    0.0000000000   -0.0000000000

Norm of the Dispersion gradient    ...    0.0019245325
RMS gradient                       ...    0.0002424683
MAX gradient                       ...    0.0005647477

------------------
CARTESIAN GRADIENT
------------------

   1   C   :   -0.000023784   -0.000012542   -0.000001591
   2   C   :    0.000092203    0.000001635    0.000082085
   3   H   :    0.000015652    0.000013212   -0.000002525
   4   H   :    0.000053344    0.000016686    0.000016603
   5   H   :   -0.000092068   -0.000004806    0.000012989
   6   O   :   -0.000055691   -0.000035796    0.000044563
   7   O   :   -0.000007668    0.000025334    0.000007496
   8   H   :    0.000020055   -0.000065395   -0.000053781
   9   O   :    0.000106694   -0.000008027   -0.000198748
  10   C   :    0.000054803    0.000029892    0.000055431
  11   C   :   -0.000023616    0.000005156    0.000046271
  12   C   :   -0.000026420    0.000050788   -0.000091182
  13   H   :   -0.000067397   -0.000044558    0.000015560
  14   H   :    0.000042327   -0.000054950    0.000020109
  15   H   :   -0.000020638    0.000036986    0.000024643
  16   H   :    0.000016069   -0.000033722   -0.000008404
  17   C   :   -0.000026148   -0.000034363    0.000062384
  18   H   :   -0.000045619    0.000011420    0.000038149
  19   H   :    0.000031246    0.000036203   -0.000052638
  20   H   :   -0.000014376    0.000088485   -0.000011325
  21   H   :   -0.000028970   -0.000021639   -0.000006086

Difference to translation invariance:
           :   -0.0000000001    0.0000000000   -0.0000000000

Difference to rotation invariance:
           :    0.0004208494    0.0001840629    0.0000080514

Norm of the Cartesian gradient     ...    0.0003939995
RMS gradient                       ...    0.0000496393
MAX gradient                       ...    0.0001987482

-------
TIMINGS
-------

Total SCF gradient time     ....        8.360 sec

Densities                   ....       0.001 sec  (  0.0%)
One electron gradient       ....       0.087 sec  (  1.0%)
RI-J Coulomb gradient       ....       0.440 sec  (  5.3%)
COSX gradient               ....       6.285 sec  ( 75.2%)
XC gradient                 ....       1.495 sec  ( 17.9%)

Maximum memory used throughout the entire SCFGRAD-calculation: 30.8 MB


           ************************************************************
           *        Program running with 6 parallel MPI-processes     *
           *              working on a common directory               *
           ************************************************************

------------------------------------------------------------------------------
                              ORCA PROPERTY CALCULATIONS
------------------------------------------------------------------------------

GBWName                                 ... orca.gbw
Number of atoms                         ...     21
Number of basis functions               ...    186
Max core memory                         ...   4096 MB

Electric properties:
Dipole moment                           ... YES
Quadrupole moment                       ...  NO
Static polarizability (Dipole/Dipole)   ...  NO
Static polarizability (Dipole/Quad.)    ...  NO
Static polarizability (Quad./Quad.)     ...  NO
Static polarizability (Velocity)        ...  NO
Static hyperpolarizability              ...  NO

Atomic electric properties:
Dipole moment                           ...  NO
Quadrupole moment                       ...  NO
Static polarizability                   ...  NO

Choice of electric origin               ... Center of mass
Position of electric origin             ...    -0.319532     0.278584    -0.216885

General magnetic properties:
Magnetizability                         ...  NO

EPR properties:
g-Tensor (aka g-matrix)                 ...  NO
Zero-Field splitting spin-orbit         ...  NO
Zero-field splitting spin-spin          ...  NO
Hyperfine couplings                     ...  NO (   0 nuclei)
Quadrupole couplings                    ...  NO (   0 nuclei)
Contact density                         ...  NO (   0 nuclei)

NMR properties:
Chemical shifts                         ...  NO (   0 nuclei)
Spin-rotation constants                 ...  NO (   0 nuclei)
Spin-spin couplings                     ...  NO (   0 nuclei,    0 pairs)

Choice of magnetic origin               ... GIAO
Position of magnetic origin             ...     0.000000     0.000000     0.000000

Properties with geometric perturbations:
SCF Hessian                             ...  NO
IR spectrum                             ...  NO
VCD spectrum                            ...  NO
X-ray spectroscopy properties:
SCF XES/XAS/RIXS spectra                ...  NO

SCF SOC stabilization energy            ...  NO
Diagonal Born-Oppenheimer correction    ...  NO

-------------
DIPOLE MOMENT
-------------

Method             : SCF
Type of density    : Electron Density
Multiplicity       :   1
Irrep              :   0
Energy             :  -460.8343593668454901 Eh
Basis              : AO
                                X                 Y                 Z
Electronic contribution:      7.818124565       3.170085667      -1.915368573
Nuclear contribution   :     -7.276859200      -3.687582168       2.388724718
                        -----------------------------------------
Total Dipole Moment    :      0.541265365      -0.517496501       0.473356145
                        -----------------------------------------
Magnitude (a.u.)       :      0.885910190
Magnitude (Debye)      :      2.251804748



--------------------
Rotational spectrum 
--------------------
 
Rotational constants in cm-1:             0.075995             0.027140             0.022859 
Rotational constants in MHz :          2278.276370           813.640261           685.304781 

Dipole components along the rotational axes: 
x,y,z [a.u.] :     0.646277     0.429301     0.427625 
x,y,z [Debye]:     1.642706     1.091197     1.086936 

 

Dipole moment calculation done in   0.0 sec 

Maximum memory used throughout the entire PROP-calculation: 9.1 MB

--------------------------------
SUGGESTED CITATIONS FOR THIS RUN
--------------------------------

Below you find a list of papers that are relevant to this ORCA run
We neither can nor want to force you to cite these papers, but we appreciate if you do
You receive ORCA, which is the product of decades of hard work by many enthusiastic individuals, for free
The only thing we kindly ask in return is that you cite our papers,
We deeply appreciate it, if you show your appreciation for ORCA by not just citing the generic ORCA reference.

Please note that relegating all ORCA citations to the supporting information does *not* help us.
SI sections are not indexed - citations you put there will not count into any citation statistics
But we need these citations in order to attract the funding resources that allow us to do what we are doing

Therefore, if you are a happy ORCA user, please consider citing a few of the papers listed below in the main body of your paper

In addition to the list printed below, the program has created the file orca.bibtex that contains the list in bibtex format
You can import this file easily into all common literature databanks and citation aid programs


List of essential papers. We consider these as the minimum necessary citations

  1. Neese, F.
     Software update: the ORCA program system, version 6.0
     WIRES Comput. Molec. Sci. 2025 15(1), e70019
     doi.org/10.1002/wcms.7019

List of papers to cite with high priority. The work reported in these papers was absolutely
necessary for this run to complete.
Our perspective: the developers of density functionals and basis sets usually get cited in chemistry papers
Good! But without the algorithms to do something with them, the functionals or basis sets would not do anything.
Hence, in our opinion, the algorithm design and method developments papers are equally worthy of getting cited

  1. Neese, F.
     An improvement of the resolution of the identity approximation for the formation of the Coulomb matrix
     J. Comp. Chem. 2003 24(14), 1740-1747
     doi.org/10.1002/jcc.10318
  2. Neese, F.; Wennmohs, F.; Hansen, A.; Becker, U.
     Efficient, approximate and parallel Hartree-Fock and hybrid DFT calculations. A 'chain-of-spheres' algorithm for the Hartree-Fock exchange
     Chem. Phys. 2009 356(1-3), 98-109
     doi.org/10.1016/j.chemphys.2008.10.036
  3. Grimme, S.; Antony, J.; Ehrlich, S.; Krieg, H.
     A consistent and accurate ab initio parametrization of density functional dispersion correction (DFT-D) for the 94 elements H-Pu
     J. Chem. Phys. 2010 132 , 154104
     doi.org/10.1063/1.3382344
  4. Grimme, S.; Ehrlich, S.; Goerigk, L.
     Effect of the damping function in dispersion corrected density functional theory
     J. Comput. Chem. 2011 32(7), 1456-1465
     doi.org/10.1002/jcc.21759
  5. Helmich-Paris, B.; de Souza, B.; Neese, F.; Izsák, R.
     An improved chain of spheres for exchange algorithm
     J. Chem. Phys. 2021 155(10), 104109
     doi.org/10.1063/5.0058766
  6. Neese, F.
     The SHARK Integral Generation and Digestion System
     J. Comp. Chem. 2022 44(3), 381
     doi.org/10.1002/jcc.26942

List of suggested additional citations. These are papers that are important in the 'surrounding' of 
of this run, or papers that preceded the highly important papers. If you like your results we are grateful for a citation.

  1. Izsak, R.; Neese, F.
     An overlap fitted chain of spheres exchange method
     J. Chem. Phys. 2011 135 , 144105
     doi.org/10.1063/1.3646921
  2. Izsak, R.; Hansen, A.; Neese, F.
     The resolution of identity and chain of spheres approximations for the LPNO-CCSD singles Fock term
     Molec. Phys. 2012 110 , 2413-2417
     doi.org/10.1080/00268976.2012.687466
  3. Neese, F.
     The ORCA program system
     WIRES Comput. Molec. Sci. 2012 2(1), 73-78
     doi.org/10.1002/wcms.81
  4. Izsak, R.; Neese, F.; Klopper, W.
     Robust fitting techniques in the chain of spheres approximation to the Fock exchange: The role of the complementary space
     J. Chem. Phys. 2013 139 , 
     doi.org/10.1063/1.4819264
  5. Neese, F.
     Software update: the ORCA program system, version 4.0
     WIRES Comput. Molec. Sci. 2018 8(1), 1-6
     doi.org/10.1002/wcms.1327
  6. Neese, F.; Wennmohs, F.; Becker, U.; Riplinger, C.
     The ORCA quantum chemistry program package
     J. Chem. Phys. 2020 152(22), 224108
     doi.org/10.1063/5.0004608
  7. Neese, F.
     Software update: The ORCA program system—Version 5.0
     WIRES Comput. Molec. Sci. 2022 12(1), e1606
     doi.org/10.1002/wcms.1606

List of optional additional citations

  1. Neese, F.
     Approximate second-order SCF convergence for spin unrestricted wavefunctions
     Chem. Phys. Lett. 2000 325(1-3), 93-98
     doi.org/10.1016/s0009-2614(00)00662-x

Timings for individual modules:

Sum of individual times          ...       29.056 sec (=   0.484 min)
Startup calculation              ...        1.996 sec (=   0.033 min)   6.9 %
SCF iterations                   ...       17.787 sec (=   0.296 min)  61.2 %
Property calculations            ...        0.431 sec (=   0.007 min)   1.5 %
SCF Gradient evaluation          ...        8.842 sec (=   0.147 min)  30.4 %
                             ****ORCA TERMINATED NORMALLY****
TOTAL RUN TIME: 0 days 0 hours 0 minutes 29 seconds 621 msec
