
                                 *****************
                                 * O   R   C   A *
                                 *****************

                                            #,                                       
                                            ###                                      
                                            ####                                     
                                            #####                                    
                                            ######                                   
                                           ########,                                 
                                     ,,################,,,,,                         
                               ,,#################################,,                 
                          ,,##########################################,,             
                       ,#########################################, ''#####,          
                    ,#############################################,,   '####,        
                  ,##################################################,,,,####,       
                ,###########''''           ''''###############################       
              ,#####''   ,,,,##########,,,,          '''####'''          '####       
            ,##' ,,,,###########################,,,                        '##       
           ' ,,###''''                  '''############,,,                           
         ,,##''                                '''############,,,,        ,,,,,,###''
      ,#''                                            '''#######################'''  
     '                                                          ''''####''''         
             ,#######,   #######,   ,#######,      ##                                
            ,#'     '#,  ##    ##  ,#'     '#,    #''#        ,####,    ,#,          
            ##       ##  ##   ,#'  ##            #'  '#       #'       ,# #          
            ##       ##  #######   ##           ,######,      #####,      #          
            '#,     ,#'  ##    ##  '#,     ,#' ,#      #,     #,   #      #          
             '#######'   ##     ##  '#######'  #'      '#     '####' #    #          



                #########################################################
                #                        -***-                          #
                #          Department of theory and spectroscopy        #
                #                                                       #
                #                      Frank Neese                      #
                #                                                       #
                #     Directorship, Architecture, Infrastructure        #
                #                    SHARK, DRIVERS                     #
                #        Core code/Algorithms in most modules           #
                #                                                       #
                #        Max Planck Institute fuer Kohlenforschung      #
                #                Kaiser Wilhelm Platz 1                 #
                #                 D-45470 Muelheim/Ruhr                 #
                #                      Germany                          #
                #                                                       #
                #                  All rights reserved                  #
                #                        -***-                          #
                #########################################################


                         Program Version 6.1.0  -  RELEASE   -
                                (GIT: $679e74b$)
                          ($2025-06-10 18:02:51 +0200$)


 With contributions from (in alphabetic order):
[Max-Planck-Institut fuer Kohlenforschung]                               
  Daniel Aravena         : Magnetic Suceptibility                        
  Michael Atanasov       : Ab Initio Ligand Field Theory (pilot matlab implementation)
  Alexander A. Auer      : GIAO ZORA, VPT2 properties, NMR spectrum      
  Ute Becker             : All parallelization in ORCA, NUMFREQ, NUMCALC 
  Giovanni Bistoni       : ED, misc. LED, open-shell LED, HFLD           
  Dmytro Bykov           : pre 5.0 version of the SCF Hessian            
  Marcos Casanova-Páez   : Triplet and SCS-CIS(D). UHF-(DLPNO)-IP/EA/STEOM-CCSD. UHF-CVS-IP/STEOM-CCSD   
  Vijay G. Chilkuri      : MRCI spin determinant printing, contributions to CSF-ICE 
  Pauline Colinet        : FMM embedding                                 
  Dipayan Datta          : RHF DLPNO-CCSD density                        
  Achintya Kumar Dutta   : EOM-CC, STEOM-CC                              
  Nicolas Foglia         : Exact transition moments, OPA infrastructure, MCD improvements    
  Dmitry Ganyushin       : Spin-Orbit,Spin-Spin,Magnetic field MRCI      
  Miquel Garcia-Rates    : C-PCM and meta-GGA Hessian, CCSD/C-PCM, Gaussian charge scheme 
  Tiago L. C. Gouveia    : GS-ROHF, GS-ROCIS                             
  Yang Guo               : DLPNO-NEVPT2, F12-NEVPT2, CIM, IAO-localization        
  Andreas Hansen         : Spin unrestricted coupled pair/coupled cluster methods 
  Ingolf Harden          : AUTO-CI MPn and infrastructure                
  Benjamin Helmich-Paris : MC-RPA, TRAH-(SCF,CASSCF), AVAS, COSX integrals, SCF dyn. polar., MC-PDFT, srDFT 
  Lee Huntington         : MR-EOM, pCC                                   
  Robert Izsak           : Overlap fitted RIJCOSX, COSX-SCS-MP3, EOM     
  Riya Kayal             : Wick's Theorem for AUTO-CI, AUTO-CI UHF-CCSDT 
  Emily Kempfer          : AUTO-CI RHF CISDT and CCSDT, approximate NEVPT4
  Christian Kollmar      : KDIIS, OOCD, Brueckner-CCSD(T), CCSD density, CASPT2, CASPT2-K, improved NEVPT2 
  Axel Koslowski         : Symmetry handling                             
  Simone Kossmann        : meta-GGA functionals, TD-DFT gradient, OOMP2, (MP2 Hessian; deprecated post 5.0) 
  Lucas Lang             : DCDCAS, Hyperfine gauge corrections, ICE-SOC+SSC
  Marvin Lechner         : AUTO-CI (C++ implementation), FIC-MRCC        
  Spencer Leger          : CASSCF response                               
  Dagmar Lenk            : GEPOL surface, SMD, ORCA-2-JSON               
  Dimitrios Liakos       : Extrapolation schemes; Compound Job, Property file
  Dimitrios Manganas     : Further ROCIS development; embedding schemes. LFT, Crystal Embedding 
  Dimitrios Pantazis     : SARC Basis sets                               
  Anastasios Papadopoulos: AUTO-CI, single reference methods and gradients 
  Taras Petrenko         : pre 6.0 DFT Hessian and TD-DFT gradient,  ECA, NRVS 
  Petra Pikulova         : Analytic Raman intensities                    
  Peter Pinski           : DLPNO-MP2, DLPNO-MP2 Gradient                 
  Shashank Vittal Rao    : ES-AILFT, MagRelax                            
  Christoph Reimann      : Effective Core Potentials                     
  Marius Retegan         : Local ZFS, SOC                                
  Christoph Riplinger    : Optimizer, TS searches, QM/MM, DLPNO-CCSD(T), (RO)-DLPNO pert. Triples 
  Michael Roemelt        : Original ROCIS implementation, recursive CI coupling coefficients
  Masaaki Saitow         : Open-shell DLPNO-CCSD energy and density      
  Barbara Sandhoefer     : DKH picture change effects                    
  Yorick L. A. Schmerwitz: GMF and freeze-and-release deltaSCF, NEB S-IDPP initial path                    
  Kantharuban Sivalingam : CASSCF convergence/infrastructure, NEVPT2, NEVPT3, NEVPT4(SD), FIC-MRCI and CEPA variants
  Bernardo de Souza      : ESD, SOC TD-DFT                               
  Georgi L. Stoychev     : AutoAux, RI-MP2 NMR, DLPNO-MP2 response, X2C  
  Van Anh Tran           : RI-MP2 g-tensors                              
  Willem Van den Heuvel  : Paramagnetic NMR                              
  Zikuan Wang            : NOTCH, Electric field optimization            
  Frank Wennmohs         : Technical directorship and infrastructure     
  Hang Xu                : AUTO-CI-Response properties                   
                                                                         
[FACCTs GmbH]                                                            
  Markus Bursch, Nicolas Foglia, Miquel Garcia-Rates, Ingolf Harden, Hagen Neugebauer, Anastasios Papadopoulos, 
  Christoph Riplinger, Bernardo de Souza, Georgi L. Stoychev                                                    
                                                                 
  APM, various basis sets, CI-OPT, improved COSX, DLPNO-Multilevel,           
  DOCKER, DRACO, updates on ESD, Fragmentator, GOAT, IRC, LR-CPCM, L-BFGS, MBIS, meta-GGA TD-DFT gradient, ML-optimized integration grids, 
  MM, NACMEs, nearIR, NEB, NEB-TS, NL-DFT gradient (VV10), 2- and 3-layer-ONIOM, interface openCOSMO-RS, QMMM,   
  Crystal-QMMM, RESP, rigid body optimization, SF, symmetry and pop. for TD-DFT, various functionals, SOLVATOR                                   
                                                                         
[Other institutions]                                                     
  V. Asgeirsson          : NEB                                           
  Christoph Bannwarth    : sTDA-DFT, sTD-DFT, PBEh-3c, B97-3c, D3        
  Giovanni Bistoni       : ETS/NOCV, ADLD/ADEX, COVALED                  
  Martin Brehm           : Molecular dynamics                            
  Ronald Cardenas        : ETS/NOCV                                      
  Martina Colucci        : COVALED                                       
  Sebastian Ehlert       : rSCAN, r2SCAN, r2SCAN-3c, D4, dhf basis sets  
  Marvin Friede          : D4 for Fr, Ra, Ac-Lr                          
  Lars Goerigk           : TD-DFT with DH, B97 family of functionals     
  Stefan Grimme          : VdW corrections, initial TS optimization, DFT functionals, gCP, sTDA/sTD-DF 
  Waldemar Hujo          : DFT-NL                                        
  H. Jonsson             : NEB                                           
  Holger Kruse           : gCP                                           
  Marcel Mueller         : wB97X-3c, vDZP basis set                      
  Hagen Neugebauer       : wr2SCAN, Native XTB                           
  Gianluca Regni         : ADLD/ADEX                                     
  Tobias Risthaus        : pre 6.0 range-separated hybrid DFT and stability analysis
  Lukas Wittmann         : regularized MP2, r2SCAN double-hybrids, wr2SCAN        
                                                                         
We gratefully acknowledge several colleagues who have allowed us to      
interface, adapt or use parts of their codes:                            
  Ed Valeev, F. Pavosevic, A. Kumar             : LibInt (2-el integral package), F12 methods 
  Garnet Chan, S. Sharma, J. Yang, R. Olivares  : DMRG                   
  Ulf Ekstrom                                   : XCFun DFT Library      
  Mihaly Kallay                                 : mrcc  (arbitrary order and MRCC methods)
  Frank Weinhold                                : gennbo (NPA and NBO analysis)           
  Simon Mueller                                 : openCOSMO-RS                            
  Christopher J. Cramer and Donald G. Truhlar   : smd solvation model                     
  S Lehtola, MJT Oliveira, MAL Marques          : LibXC Library                           
  Liviu Ungur et al                             : ANISO software                          


 Your calculation uses the libint2 library for the computation of 2-el integrals
 For citations please refer to: http://libint.valeyev.net

 Your ORCA version has been built with support for libXC version: 7.0.0
 For citations please refer to: https://libxc.gitlab.io

 This ORCA versions uses:
   CBLAS   interface :  Fast vector & matrix operations
   LAPACKE interface :  Fast linear algebra routines
   SCALAPACK package :  Parallel linear algebra routines
   Shared memory     :  Shared parallel matrices
   BLAS/LAPACK       :  OpenBLAS 0.3.29  USE64BITINT DYNAMIC_ARCH NO_AFFINITY Zen SINGLE_THREADED
        Core in use  :  Zen
   Copyright (c) 2011-2014, The OpenBLAS Project


  ***********************************
  * Starting time: Wed Sep 10 13:39:47 2025
  * Host name:     wyk-Server
  * Process ID:    2316035
  * Working dir.:  /home/wyk/Documents/code/openQDC/MGMR/singlepointcalc/118/sp
  ***********************************

Your calculation utilizes the atom-pairwise dispersion correction
with the Becke-Johnson damping scheme (D3BJ)


Warning: RI is on but no J-basis has been assigned. Assigning Def2/J (nothing to worry about!)
================================================================================

----- Orbital basis set information -----
Your calculation utilizes the basis: def2-SVP
   F. Weigend and R. Ahlrichs, Phys. Chem. Chem. Phys. 7, 3297 (2005).

----- AuxJ basis set information -----
Your calculation utilizes the auxiliary basis: def2/J
   H-Rn: F. Weigend, Phys. Chem. Chem. Phys. 8, 1057 (2006).
   Fr-Lr: K. Eichkorn, F. Weigend, O. Treutler, R. Ahlrichs; Theor. Chem. Acc. 97, 119 (1997).

================================================================================
                                        WARNINGS
                       Please study these warnings very carefully!
================================================================================


================================================================================
                                       INPUT FILE
================================================================================
NAME = orca.inp
|  1> ! B3LYP def2-SVP d3 EnGrad 
|  2> %pal nprocs 6 end 
|  3> *xyz 0 1 
|  4> C   -1.17782471309187 -0.65160790849152 -0.35186807805749
|  5> C   1.54497838908666 -0.02780277269032 -0.28759096226993
|  6> C   -1.21688460151854 0.72248540958544 -0.20472092071152
|  7> C   -0.60603028872626 -1.44928262012815 0.64183070421658
|  8> C   1.12732896311606 1.24909010086981 0.04830371620796
|  9> H   -1.49945643265994 1.37162303290144 -1.03687787109144
| 10> H   -1.28415238622985 1.16464701907979 0.78999790154407
| 11> H   -0.60209630020155 -1.10284177458699 1.67709190664806
| 12> H   0.86533135586793 1.47372793376794 1.08268473470096
| 13> H   -0.51258810766336 -2.52733497741505 0.50390000999903
| 14> H   1.35065567341419 2.09037854138312 -0.61268761174726
| 15> H   -1.26613481758641 -1.07342808571264 -1.35922078788556
| 16> H   1.95789810621072 -0.17422951111302 -1.31008962131811
| 17> O   1.31897515998222 -1.06542438744985 0.41924687976466
| 18> *
| 19> 
| 20>                          ****END OF INPUT****
================================================================================

                     *******************************
                     * Energy+Gradient Calculation *
                     *******************************

---------------------------------
CARTESIAN COORDINATES (ANGSTROEM)
---------------------------------
  C     -1.177825   -0.651608   -0.351868
  C      1.544978   -0.027803   -0.287591
  C     -1.216885    0.722485   -0.204721
  C     -0.606030   -1.449283    0.641831
  C      1.127329    1.249090    0.048304
  H     -1.499456    1.371623   -1.036878
  H     -1.284152    1.164647    0.789998
  H     -0.602096   -1.102842    1.677092
  H      0.865331    1.473728    1.082685
  H     -0.512588   -2.527335    0.503900
  H      1.350656    2.090379   -0.612688
  H     -1.266135   -1.073428   -1.359221
  H      1.957898   -0.174230   -1.310090
  O      1.318975   -1.065424    0.419247

----------------------------
CARTESIAN COORDINATES (A.U.)
----------------------------
  NO LB      ZA    FRAG     MASS         X           Y           Z
   0 C     6.0000    0    12.011   -2.225766   -1.231360   -0.664934
   1 C     6.0000    0    12.011    2.919586   -0.052540   -0.543468
   2 C     6.0000    0    12.011   -2.299579    1.365300   -0.386866
   3 C     6.0000    0    12.011   -1.145231   -2.738747    1.212884
   4 C     6.0000    0    12.011    2.130343    2.360438    0.091281
   5 H     1.0000    0     1.008   -2.833562    2.591992   -1.959415
   6 H     1.0000    0     1.008   -2.426696    2.200864    1.492880
   7 H     1.0000    0     1.008   -1.137797   -2.084069    3.169244
   8 H     1.0000    0     1.008    1.635239    2.784942    2.045978
   9 H     1.0000    0     1.008   -0.968651   -4.775971    0.952233
  10 H     1.0000    0     1.008    2.552369    3.950243   -1.157812
  11 H     1.0000    0     1.008   -2.392648   -2.028485   -2.568555
  12 H     1.0000    0     1.008    3.699891   -0.329246   -2.475711
  13 O     8.0000    0    15.999    2.492502   -2.013360    0.792262

--------------------------------
INTERNAL COORDINATES (ANGSTROEM)
--------------------------------
 C      0   0   0     0.000000000000     0.00000000     0.00000000
 C      1   0   0     2.794086814739     0.00000000     0.00000000
 C      1   2   0     1.382501503646    78.64908522     0.00000000
 C      1   2   3     1.396664268610    73.27292604   233.37615104
 C      2   1   3     1.384814676624    85.27012886     8.23495888
 H      3   1   2     1.092571134446   121.11548232   106.51550881
 H      3   1   2     1.090640811230   120.11689578   266.79831940
 H      4   1   2     1.091697070155   119.66528096    93.18750967
 H      5   2   1     1.090435231268   119.50523718    81.66621344
 H      4   1   2     1.090849761728   120.63289444   249.63802611
 H      5   2   1     1.092954983202   120.09487458   242.48031968
 H      1   2   3     1.095668936524   100.69877453   117.28838549
 H      2   1   3     1.112405946708   108.13107910   251.19189156
 O      2   1   3     1.275678568415    70.03214440   137.30231644

---------------------------
INTERNAL COORDINATES (A.U.)
---------------------------
 C      0   0   0     0.000000000000     0.00000000     0.00000000
 C      1   0   0     5.280058874257     0.00000000     0.00000000
 C      1   2   0     2.612549221625    78.64908522     0.00000000
 C      1   2   3     2.639312968707    73.27292604   233.37615104
 C      2   1   3     2.616920485053    85.27012886     8.23495888
 H      3   1   2     2.064660225931   121.11548232   106.51550881
 H      3   1   2     2.061012443702   120.11689578   266.79831940
 H      4   1   2     2.063008483797   119.66528096    93.18750967
 H      5   2   1     2.060623953876   119.50523718    81.66621344
 H      4   1   2     2.061407302918   120.63289444   249.63802611
 H      5   2   1     2.065385594956   120.09487458   242.48031968
 H      1   2   3     2.070514223476   100.69877453   117.28838549
 H      2   1   3     2.102142589023   108.13107910   251.19189156
 O      2   1   3     2.410683129218    70.03214440   137.30231644

---------------------
BASIS SET INFORMATION
---------------------
There are 3 groups of distinct atoms

 Group   1 Type C   : 7s4p1d contracted to 3s2p1d pattern {511/31/1}
 Group   2 Type H   : 4s1p contracted to 2s1p pattern {31/1}
 Group   3 Type O   : 7s4p1d contracted to 3s2p1d pattern {511/31/1}

Atom   0C    basis set group =>   1
Atom   1C    basis set group =>   1
Atom   2C    basis set group =>   1
Atom   3C    basis set group =>   1
Atom   4C    basis set group =>   1
Atom   5H    basis set group =>   2
Atom   6H    basis set group =>   2
Atom   7H    basis set group =>   2
Atom   8H    basis set group =>   2
Atom   9H    basis set group =>   2
Atom  10H    basis set group =>   2
Atom  11H    basis set group =>   2
Atom  12H    basis set group =>   2
Atom  13O    basis set group =>   3
---------------------------------
AUXILIARY/J BASIS SET INFORMATION
---------------------------------
There are 3 groups of distinct atoms

 Group   1 Type C   : 12s5p4d2f1g contracted to 6s4p3d1f1g pattern {711111/2111/211/2/1}
 Group   2 Type H   : 5s2p1d contracted to 3s1p1d pattern {311/2/1}
 Group   3 Type O   : 12s5p4d2f1g contracted to 6s4p3d1f1g pattern {711111/2111/211/2/1}

Atom   0C    basis set group =>   1
Atom   1C    basis set group =>   1
Atom   2C    basis set group =>   1
Atom   3C    basis set group =>   1
Atom   4C    basis set group =>   1
Atom   5H    basis set group =>   2
Atom   6H    basis set group =>   2
Atom   7H    basis set group =>   2
Atom   8H    basis set group =>   2
Atom   9H    basis set group =>   2
Atom  10H    basis set group =>   2
Atom  11H    basis set group =>   2
Atom  12H    basis set group =>   2
Atom  13O    basis set group =>   3


           ************************************************************
           *        Program running with 6 parallel MPI-processes     *
           *              working on a common directory               *
           ************************************************************
------------------------------------------------------------------------------
                             ORCA STARTUP CALCULATIONS
                           -- RI-GTO INTEGRALS CHOSEN --
------------------------------------------------------------------------------
------------------------------------------------------------------------------
                   ___                                                        
                  /   \      - P O W E R E D   B Y -                         
                 /     \                                                     
                 |  |  |   _    _      __       _____    __    __             
                 |  |  |  | |  | |    /  \     |  _  \  |  |  /  |          
                  \  \/   | |  | |   /    \    | | | |  |  | /  /          
                 / \  \   | |__| |  /  /\  \   | |_| |  |  |/  /          
                |  |  |   |  __  | /  /__\  \  |    /   |      \           
                |  |  |   | |  | | |   __   |  |    \   |  |\   \          
                \     /   | |  | | |  |  |  |  | |\  \  |  | \   \       
                 \___/    |_|  |_| |__|  |__|  |_| \__\ |__|  \__/        
                                                                              
                      - O R C A' S   B I G   F R I E N D -                    
                                      &                                       
                       - I N T E G R A L  F E E D E R -                       
                                                                              
 v1 FN, 2020, v2 2021, v3 2022-2024                                           
------------------------------------------------------------------------------


----------------------
SHARK INTEGRAL PACKAGE
----------------------

Number of atoms                             ...     14
Number of basis functions                   ...    124
Number of shells                            ...     60
Maximum angular momentum                    ...      2
Integral batch strategy                     ... SHARK/LIBINT Hybrid
RI-J (if used) integral strategy            ... SPLIT-RIJ (Revised 2003 algorithm where possible)
Printlevel                                  ...      1
Contraction scheme used                     ... SEGMENTED contraction
Prescreening option                         ... SCHWARTZ
   Thresh                                   ... 2.500e-11
   Tcut                                     ... 2.500e-12
   Tpresel                                  ... 2.500e-12 
Coulomb Range Separation                    ... NOT USED
Exchange Range Separation                   ... NOT USED
Multipole approximations                    ... NOT USED
Finite Nucleus Model                        ... NOT USED
CABS basis                                  ... NOT available
Auxiliary Coulomb fitting basis             ... AVAILABLE
   # of basis functions in Aux-J            ...    382
   # of shells in Aux-J                     ...    130
   Maximum angular momentum in Aux-J        ...      4
Auxiliary J/K fitting basis                 ... NOT available
Auxiliary Correlation fitting basis         ... NOT available
Auxiliary 'external' fitting basis          ... NOT available

Checking pre-screening integrals            ... done (  0.0 sec) Dimension = 60
   => SHARK Basis and OBASIS are compatible. Storing Pre-screening
Shell pair information
Shell pair cut-off parameter TPreSel        ...   2.5e-12
Total number of shell pairs                 ...      1830
Shell pairs after pre-screening             ...      1806
Total number of primitive shell pairs       ...      6430
Primitive shell pairs kept                  ...      4960
          la=0 lb=0:    583 shell pairs
          la=1 lb=0:    670 shell pairs
          la=1 lb=1:    209 shell pairs
          la=2 lb=0:    203 shell pairs
          la=2 lb=1:    120 shell pairs
          la=2 lb=2:     21 shell pairs

Checking whether 4 symmetric matrices of dimension 124 fit in memory
:Max Core in MB      =   4096.00
 MB in use           =      5.63
 MB left             =   4090.37
 MB needed           =      0.24
 Data fit in memory  = YES
Calculating RI/J V-Matrix + Cholesky decomp.... done (  0.0 sec)
Calculating Nuclear repulsion               ... done (  0.0 sec) ENN=    227.015321721445 Eh

Diagonalization of the overlap matrix:
Smallest eigenvalue                        ... 1.351e-03
Time for diagonalization                   ...    0.003 sec
Threshold for overlap eigenvalues          ... 1.000e-07
Number of eigenvalues below threshold      ... 0
Time for construction of square roots      ...    0.001 sec
Total time needed                          ...    0.005 sec

-------------------
DFT GRID GENERATION
-------------------

General Integration Accuracy     IntAcc      ... 4.388
Radial Grid Type                 RadialGrid  ... OptM3 with GC (2021)
Angular Grid (max. ang.)         AngularGrid ... 4 (Lebedev-302)
Angular grid pruning method      GridPruning ... 4 (adaptive)
Weight generation scheme         WeightScheme... mBecke (2022)
Basis function cutoff            BFCut       ... 1.0000e-11
Integration weight cutoff        WCut        ... 1.0000e-14
Partially contracted basis set               ... off
Rotationally invariant grid construction     ... off
Angular grids for H and He will be reduced by one unit

Total number of grid points                  ...    62013
Total number of batches                      ...      975
Average number of points per batch           ...       63
Average number of grid points per atom       ...     4430

--------------------
COSX GRID GENERATION
--------------------

GRIDX 1
-------
General Integration Accuracy     IntAcc      ... 3.816
Radial Grid Type                 RadialGrid  ... OptM3 with GC (2021)
Angular Grid (max. ang.)         AngularGrid ... 1 (Lebedev-50)
Angular grid pruning method      GridPruning ... 4 (adaptive)
Weight generation scheme         WeightScheme... mBecke (2022)
Basis function cutoff            BFCut       ... 1.0000e-11
Integration weight cutoff        WCut        ... 1.0000e-14
Partially contracted basis set               ... on
Rotationally invariant grid construction     ... off
Angular grids for H and He will be reduced by one unit

Total number of grid points                  ...     7976
Total number of batches                      ...       72
Average number of points per batch           ...      110
Average number of grid points per atom       ...      570
UseSFitting                                  ... on

GRIDX 2
-------
General Integration Accuracy     IntAcc      ... 4.020
Radial Grid Type                 RadialGrid  ... OptM3 with GC (2021)
Angular Grid (max. ang.)         AngularGrid ... 2 (Lebedev-110)
Angular grid pruning method      GridPruning ... 4 (adaptive)
Weight generation scheme         WeightScheme... mBecke (2022)
Basis function cutoff            BFCut       ... 1.0000e-11
Integration weight cutoff        WCut        ... 1.0000e-14
Partially contracted basis set               ... on
Rotationally invariant grid construction     ... off
Angular grids for H and He will be reduced by one unit

Total number of grid points                  ...    16990
Total number of batches                      ...      139
Average number of points per batch           ...      122
Average number of grid points per atom       ...     1214
UseSFitting                                  ... on

GRIDX 3
-------
General Integration Accuracy     IntAcc      ... 4.338
Radial Grid Type                 RadialGrid  ... OptM3 with GC (2021)
Angular Grid (max. ang.)         AngularGrid ... 3 (Lebedev-194)
Angular grid pruning method      GridPruning ... 4 (adaptive)
Weight generation scheme         WeightScheme... mBecke (2022)
Basis function cutoff            BFCut       ... 1.0000e-11
Integration weight cutoff        WCut        ... 1.0000e-14
Partially contracted basis set               ... on
Rotationally invariant grid construction     ... off
Angular grids for H and He will be reduced by one unit

Total number of grid points                  ...    37190
Total number of batches                      ...      299
Average number of points per batch           ...      124
Average number of grid points per atom       ...     2656
UseSFitting                                  ... on
Grids setup in   0.9 sec
Initializing property integral containers    ... done (  0.0 sec)

SHARK setup successfully completed in   1.0 seconds

Maximum memory used throughout the entire STARTUP-calculation: 18.4 MB


           ************************************************************
           *        Program running with 6 parallel MPI-processes     *
           *              working on a common directory               *
           ************************************************************
-------------------------------------------------------------------------------
                                 ORCA GUESS
                   Start orbitals & Density for SCF / CASSCF
-------------------------------------------------------------------------------

------------
SCF SETTINGS
------------
Hamiltonian:
 Density Functional     Method          .... DFT(GTOs)
 Exchange Functional    Exchange        .... B88
   X-Alpha parameter    XAlpha          ....  0.666667
   Becke's b parameter  XBeta           ....  0.004200
 Correlation Functional Correlation     .... LYP
 LDA part of GGA corr.  LDAOpt          .... VWN-5
 Gradients option       PostSCFGGA      .... off
 Hybrid DFT is turned on
   Fraction HF Exchange ScalHFX         ....  0.200000
   Scaling of DF-GGA-X  ScalDFX         ....  0.720000
   Scaling of DF-GGA-C  ScalDFC         ....  0.810000
   Scaling of DF-LDA-C  ScalLDAC        ....  1.000000
   Perturbative correction              ....  0.000000
   NL short-range parameter             ....  4.800000
 RI-approximation to the Coulomb term is turned on
   Number of AuxJ basis functions       .... 382
   RIJ-COSX (HFX calculated with COS-X)).... on


General Settings:
 Integral files         IntName         .... orca
 Hartree-Fock type      HFTyp           .... RHF
 Total Charge           Charge          ....    0
 Multiplicity           Mult            ....    1
 Number of Electrons    NEL             ....   46
 Basis Dimension        Dim             ....  124
 Nuclear Repulsion      ENuc            ....    227.0153217214 Eh

Convergence Acceleration:
 AO-DIIS                CNVDIIS         .... on
   Start iteration      DIISMaxIt       ....    12
   Startup error        DIISStart       ....  0.200000
   # of expansion vecs  DIISMaxEq       ....     5
   Bias factor          DIISBfac        ....   1.050
   Max. coefficient     DIISMaxC        ....  10.000
 MO-DIIS                CNVKDIIS        .... off
 Trust-Rad. Augm. Hess. CNVTRAH         .... auto
   Auto Start mean grad. ratio tolernc. ....  1.125000
   Auto Start start iteration           ....    50
   Auto Start num. interpolation iter.  ....    10
   Max. Number of Micro iterations      ....    24
   Max. Number of Macro iterations      .... Maxiter - #DIIS iter
   Number of Davidson start vectors     ....     2
   Converg. threshold    (grad. norm)   ....   1.000e-05
   Grad. Scal. Fac. for Micro threshold ....   0.100
   Minimum threshold for Micro iter.    ....   1.000e-02
   NR start threshold (gradient norm)   ....   1.000e-04
   Initial trust radius                 ....   0.400
   Minimum AH scaling param. (alpha)    ....   1.000
   Maximum AH scaling param. (alpha)    .... 1000.000
   Quad. conv. algorithm                .... NR
   White noise on init. David. guess    .... on
   Maximum white noise                  ....   0.010
   Pseudo random numbers                .... off
   Inactive MOs                         .... canonical
   Orbital update algorithm             .... Taylor
   Preconditioner                       .... Diag
   Full preconditioner red. dimension   ....   250
 SOSCF                 CNVSOSCF           .... on
   Start iteration     SOSCFMaxIt         ....   150
   Startup grad/error  SOSCFStart         ....  0.003300
   Hessian update      SOSCFHessUp        .... L-BFGS
   Autom. constraints  SOSCFAutoConstrain .... off
 Level Shifting         CNVShift        .... on
   Level shift para.    LevelShift      ....    0.2500
   Turn off err/grad.   ShiftErr        ....    0.0010
 Zerner damping         CNVZerner       .... off
 Static damping         CNVDamp         .... on
   Fraction old density DampFac         ....    0.7000
   Max. Damping (<1)    DampMax         ....    0.9800
   Min. Damping (>=0)   DampMin         ....    0.0000
   Turn off err/grad.   DampErr         ....    0.1000

SCF Procedure:
 Maximum # iterations   MaxIter         ....   125
 SCF integral mode      SCFMode         .... Direct
   Integral package                     .... SHARK and LIBINT hybrid scheme
 Reset frequency        DirectResetFreq ....    20
 Integral Threshold     Thresh          ....  2.500e-11 Eh
 Primitive CutOff       TCut            ....  2.500e-12 Eh

Convergence Tolerance:
 Convergence Check Mode ConvCheckMode   .... Total+1el-Energy
 Convergence forced     ConvForced      .... 0
 Energy Change          TolE            ....  1.000e-08 Eh
 1-El. energy change                    ....  1.000e-05 Eh
 Orbital Gradient       TolG            ....  1.000e-05
 Orbital Rotation angle TolX            ....  1.000e-05
 DIIS Error             TolErr          ....  5.000e-07

------------------------------
INITIAL GUESS: MODEL POTENTIAL
------------------------------
Loading Hartree-Fock densities                     ... done
Calculating cut-offs                               ... done
Initializing the effective Hamiltonian             ... done
Setting up the integral package (SHARK)            ... done
Starting the Coulomb interaction                   ... done (   0.0 sec)
Making the grid                                    ... done (   0.1 sec)
Mapping shells                                     ... done
Starting the XC term evaluation                    ... done (   0.0 sec)
  promolecular density results
     # of electrons  =     45.995071122
     EX              =    -36.169383440
     EC              =     -1.508875837
     EX+EC           =    -37.678259277
Transforming the Hamiltonian                       ... done (   0.0 sec)
Diagonalizing the Hamiltonian                      ... done (   0.0 sec)
Back transforming the eigenvectors                 ... done (   0.0 sec)
Now organizing SCF variables                       ... done
                      ------------------
                      INITIAL GUESS DONE (   0.2 sec)
                      ------------------
             **** ENERGY FILE WAS UPDATED (orca.en.tmp) ****
Finished Guess after   0.3 sec
Maximum memory used throughout the entire GUESS-calculation: 8.1 MB


           ************************************************************
           *        Program running with 6 parallel MPI-processes     *
           *              working on a common directory               *
           ************************************************************

-------------------------------------------------------------------------------------------
                                      ORCA LEAN-SCF
                              memory conserving SCF solver
-------------------------------------------------------------------------------------------

----------------------------------------D-I-I-S--------------------------------------------
Iteration    Energy (Eh)           Delta-E    RMSDP     MaxDP     DIISErr   Damp  Time(sec)
-------------------------------------------------------------------------------------------
               ***  Starting incremental Fock matrix formation  ***
    1    -269.9343267104750907     0.00e+00  9.79e-03  8.54e-02  2.09e-01  0.700   0.7
    2    -270.0056098723792957    -7.13e-02  6.66e-03  5.44e-02  8.26e-02  0.700   0.5
                               ***Turning on AO-DIIS***
    3    -270.0341425233714858    -2.85e-02  2.60e-03  1.64e-02  3.53e-02  0.700   0.5
    4    -270.0512370425137760    -1.71e-02  4.53e-03  2.75e-02  1.86e-02  0.000   0.4
    5    -270.0884312276760966    -3.72e-02  7.59e-04  5.18e-03  6.13e-03  0.000   0.4
                              *** Initializing SOSCF ***
---------------------------------------S-O-S-C-F--------------------------------------
Iteration    Energy (Eh)           Delta-E    RMSDP     MaxDP     MaxGrad    Time(sec)
--------------------------------------------------------------------------------------
    6    -270.0886490363342318    -2.18e-04  2.90e-04  1.97e-03  1.60e-03     0.4
               *** Restarting incremental Fock matrix formation ***
    7    -270.0886584298726234    -9.39e-06  1.94e-04  1.18e-03  1.53e-04     0.7
    8    -270.0886586625338737    -2.33e-07  7.85e-05  8.05e-04  3.80e-04     0.6
    9    -270.0886603922513132    -1.73e-06  7.82e-05  7.46e-04  1.66e-04     0.6
   10    -270.0886603130305161     7.92e-08  3.68e-05  3.26e-04  9.45e-05     0.6
   11    -270.0886607264776558    -4.13e-07  1.88e-05  1.77e-04  3.60e-05     0.6
   12    -270.0886606977220481     2.88e-08  1.11e-05  1.10e-04  5.13e-05     0.6
   13    -270.0886607485452942    -5.08e-08  3.20e-06  2.86e-05  5.30e-06     0.6
   14    -270.0886607451565737     3.39e-09  1.80e-06  1.71e-05  8.38e-06     0.5
                 **** Energy Check signals convergence ****

               *****************************************************
               *                     SUCCESS                       *
               *           SCF CONVERGED AFTER  14 CYCLES          *
               *****************************************************

Recomputing exchange energy using gridx3       ... done (    1.094 sec)
Old exchange energy                            :     -7.350404624 Eh
New exchange energy                            :     -7.350405090 Eh
Exchange energy change after final integration :     -0.000000466 Eh
Total energy after final integration           :   -270.088661215 Eh
             **** ENERGY FILE WAS UPDATED (orca.en.tmp) ****

----------------
TOTAL SCF ENERGY
----------------

Total Energy       :       -270.08866121503024 Eh           -7349.48611 eV

Components:
Nuclear Repulsion  :        227.01532172144522 Eh            6177.40096 eV
Electronic Energy  :       -497.10398247045134 Eh          -13526.88706 eV
One Electron Energy:       -814.84666335202553 Eh          -22173.10497 eV
Two Electron Energy:        317.74268088157419 Eh            8646.21791 eV

Virial components:
Potential Energy   :       -537.39013471081807 Eh          -14623.12899 eV
Kinetic Energy     :        267.30147349578783 Eh            7273.64288 eV
Virial Ratio       :          2.01042713189266

DFT components:
N(Alpha)           :       22.999996753857 electrons
N(Beta)            :       22.999996753857 electrons
N(Total)           :       45.999993507713 electrons
E(X)               :      -29.226242468113 Eh       
E(C)               :       -1.789117342562 Eh       
E(XC)              :      -31.015359810675 Eh       

---------------
SCF CONVERGENCE
---------------

  Last Energy change         ...   -3.3887e-09  Tolerance :   1.0000e-08
  Last MAX-Density change    ...    1.7118e-05  Tolerance :   1.0000e-07
  Last RMS-Density change    ...    1.8013e-06  Tolerance :   5.0000e-09
  Last DIIS Error            ...    1.5963e-03  Tolerance :   5.0000e-07
  Last Orbital Gradient      ...    8.3832e-06  Tolerance :   1.0000e-05
  Last Orbital Rotation      ...    1.1151e-05  Tolerance :   1.0000e-05


----------------
ORBITAL ENERGIES
----------------

  NO   OCC          E(Eh)            E(eV) 
   0   2.0000     -19.115666      -520.1637 
   1   2.0000     -10.229253      -278.3521 
   2   2.0000     -10.226302      -278.2718 
   3   2.0000     -10.216684      -278.0101 
   4   2.0000     -10.188686      -277.2482 
   5   2.0000     -10.184059      -277.1223 
   6   2.0000      -0.991279       -26.9741 
   7   2.0000      -0.795329       -21.6420 
   8   2.0000      -0.720937       -19.6177 
   9   2.0000      -0.670726       -18.2514 
  10   2.0000      -0.571921       -15.5628 
  11   2.0000      -0.531420       -14.4607 
  12   2.0000      -0.492610       -13.4046 
  13   2.0000      -0.456303       -12.4166 
  14   2.0000      -0.453310       -12.3352 
  15   2.0000      -0.424974       -11.5641 
  16   2.0000      -0.396833       -10.7984 
  17   2.0000      -0.391133       -10.6433 
  18   2.0000      -0.377084       -10.2610 
  19   2.0000      -0.362380        -9.8609 
  20   2.0000      -0.277015        -7.5380 
  21   2.0000      -0.256643        -6.9836 
  22   2.0000      -0.222177        -6.0458 
  23   0.0000      -0.050658        -1.3785 
  24   0.0000      -0.002675        -0.0728 
  25   0.0000       0.064587         1.7575 
  26   0.0000       0.074189         2.0188 
  27   0.0000       0.096330         2.6213 
  28   0.0000       0.102648         2.7932 
  29   0.0000       0.108689         2.9576 
  30   0.0000       0.140658         3.8275 
  31   0.0000       0.144614         3.9351 
  32   0.0000       0.155040         4.2189 
  33   0.0000       0.183264         4.9869 
*Only the first 10 virtual orbitals were printed.

                    ********************************
                    * MULLIKEN POPULATION ANALYSIS *
                    ********************************

-----------------------
MULLIKEN ATOMIC CHARGES
-----------------------
   0 C :   -0.087247
   1 C :    0.123113
   2 C :    0.012956
   3 C :    0.155031
   4 C :   -0.026826
   5 H :    0.037951
   6 H :    0.029504
   7 H :    0.031334
   8 H :    0.014688
   9 H :    0.036951
  10 H :    0.020746
  11 H :    0.005695
  12 H :   -0.024113
  13 O :   -0.329783
Sum of atomic charges:   -0.0000000

--------------------------------
MULLIKEN REDUCED ORBITAL CHARGES
--------------------------------
  0 C s       :     3.112768  s :     3.112768
      pz      :     0.950353  p :     2.939109
      px      :     1.033262
      py      :     0.955495
      dz2     :     0.008950  d :     0.035370
      dxz     :     0.003165
      dyz     :     0.011085
      dx2y2   :     0.006257
      dxy     :     0.005913

  1 C s       :     3.109910  s :     3.109910
      pz      :     0.911719  p :     2.688728
      px      :     0.888186
      py      :     0.888823
      dz2     :     0.020340  d :     0.078249
      dxz     :     0.006561
      dyz     :     0.020415
      dx2y2   :     0.016100
      dxy     :     0.014833

  2 C s       :     3.098952  s :     3.098952
      pz      :     0.958058  p :     2.860391
      px      :     0.913865
      py      :     0.988469
      dz2     :     0.005773  d :     0.027701
      dxz     :     0.000884
      dyz     :     0.010609
      dx2y2   :     0.004689
      dxy     :     0.005745

  3 C s       :     3.086348  s :     3.086348
      pz      :     0.980470  p :     2.726937
      px      :     0.767971
      py      :     0.978496
      dz2     :     0.010425  d :     0.031684
      dxz     :     0.003759
      dyz     :     0.006241
      dx2y2   :     0.008435
      dxy     :     0.002823

  4 C s       :     3.071340  s :     3.071340
      pz      :     0.955302  p :     2.931371
      px      :     1.013028
      py      :     0.963042
      dz2     :     0.006005  d :     0.024114
      dxz     :     0.001194
      dyz     :     0.007719
      dx2y2   :     0.004518
      dxy     :     0.004678

  5 H s       :     0.939010  s :     0.939010
      pz      :     0.010399  p :     0.023039
      px      :     0.004950
      py      :     0.007690

  6 H s       :     0.946765  s :     0.946765
      pz      :     0.012982  p :     0.023731
      px      :     0.004760
      py      :     0.005989

  7 H s       :     0.945843  s :     0.945843
      pz      :     0.013814  p :     0.022823
      px      :     0.003914
      py      :     0.005095

  8 H s       :     0.961780  s :     0.961780
      pz      :     0.013578  p :     0.023532
      px      :     0.005615
      py      :     0.004339

  9 H s       :     0.940345  s :     0.940345
      pz      :     0.004220  p :     0.022703
      px      :     0.003760
      py      :     0.014723

 10 H s       :     0.955912  s :     0.955912
      pz      :     0.007804  p :     0.023342
      px      :     0.005428
      py      :     0.010110

 11 H s       :     0.971743  s :     0.971743
      pz      :     0.012893  p :     0.022562
      px      :     0.004609
      py      :     0.005059

 12 H s       :     1.004159  s :     1.004159
      pz      :     0.012374  p :     0.019955
      px      :     0.005058
      py      :     0.002524

 13 O s       :     3.792207  s :     3.792207
      pz      :     1.644597  p :     4.522733
      px      :     1.359115
      py      :     1.519022
      dz2     :     0.002394  d :     0.014843
      dxz     :     0.001276
      dyz     :     0.004718
      dx2y2   :     0.003572
      dxy     :     0.002882



                     *******************************
                     * LOEWDIN POPULATION ANALYSIS *
                     *******************************

----------------------
LOEWDIN ATOMIC CHARGES
----------------------
   0 C :   -0.093967
   1 C :    0.043337
   2 C :    0.031924
   3 C :    0.103740
   4 C :   -0.084281
   5 H :    0.030007
   6 H :    0.029256
   7 H :    0.028815
   8 H :    0.022615
   9 H :    0.032328
  10 H :    0.023335
  11 H :    0.026957
  12 H :   -0.007735
  13 O :   -0.186332

-------------------------------
LOEWDIN REDUCED ORBITAL CHARGES
-------------------------------
  0 C s       :     2.867110  s :     2.867110
      pz      :     1.048931  p :     3.134672
      px      :     1.023556
      py      :     1.062185
      dz2     :     0.023701  d :     0.092185
      dxz     :     0.007894
      dyz     :     0.030385
      dx2y2   :     0.016832
      dxy     :     0.013373

  1 C s       :     2.874624  s :     2.874624
      pz      :     0.985352  p :     2.896425
      px      :     0.905975
      py      :     1.005098
      dz2     :     0.050062  d :     0.185614
      dxz     :     0.014805
      dyz     :     0.048971
      dx2y2   :     0.039476
      dxy     :     0.032299

  2 C s       :     2.903214  s :     2.903214
      pz      :     1.055549  p :     2.996425
      px      :     0.876144
      py      :     1.064732
      dz2     :     0.015155  d :     0.068437
      dxz     :     0.002053
      dyz     :     0.027463
      dx2y2   :     0.012271
      dxy     :     0.011495

  3 C s       :     2.907293  s :     2.907293
      pz      :     1.063887  p :     2.913048
      px      :     0.798233
      py      :     1.050928
      dz2     :     0.025735  d :     0.075919
      dxz     :     0.008695
      dyz     :     0.016426
      dx2y2   :     0.019030
      dxy     :     0.006033

  4 C s       :     2.912535  s :     2.912535
      pz      :     1.049291  p :     3.108375
      px      :     0.999837
      py      :     1.059246
      dz2     :     0.016037  d :     0.063372
      dxz     :     0.002992
      dyz     :     0.021275
      dx2y2   :     0.011997
      dxy     :     0.011070

  5 H s       :     0.902014  s :     0.902014
      pz      :     0.030743  p :     0.067979
      px      :     0.015439
      py      :     0.021796

  6 H s       :     0.901482  s :     0.901482
      pz      :     0.039143  p :     0.069262
      px      :     0.014071
      py      :     0.016048

  7 H s       :     0.903428  s :     0.903428
      pz      :     0.041340  p :     0.067757
      px      :     0.011659
      py      :     0.014758

  8 H s       :     0.906922  s :     0.906922
      pz      :     0.040542  p :     0.070463
      px      :     0.018137
      py      :     0.011784

  9 H s       :     0.900222  s :     0.900222
      pz      :     0.011728  p :     0.067449
      px      :     0.011600
      py      :     0.044121

 10 H s       :     0.906746  s :     0.906746
      pz      :     0.023202  p :     0.069919
      px      :     0.017360
      py      :     0.029356

 11 H s       :     0.906563  s :     0.906563
      pz      :     0.036667  p :     0.066480
      px      :     0.015034
      py      :     0.014779

 12 H s       :     0.944389  s :     0.944389
      pz      :     0.039219  p :     0.063346
      px      :     0.015386
      py      :     0.008740

 13 O s       :     3.556669  s :     3.556669
      pz      :     1.679135  p :     4.603673
      px      :     1.348949
      py      :     1.575590
      dz2     :     0.003740  d :     0.025990
      dxz     :     0.001996
      dyz     :     0.009113
      dx2y2   :     0.006566
      dxy     :     0.004575



                      *****************************
                      * MAYER POPULATION ANALYSIS *
                      *****************************

  NA   - Mulliken gross atomic population
  ZA   - Total nuclear charge
  QA   - Mulliken gross atomic charge
  VA   - Mayer's total valence
  BVA  - Mayer's bonded valence
  FA   - Mayer's free valence

  ATOM       NA         ZA         QA         VA         BVA        FA
  0 C      6.0872     6.0000    -0.0872     4.1563     4.1563    -0.0000
  1 C      5.8769     6.0000     0.1231     4.1970     4.1970    -0.0000
  2 C      5.9870     6.0000     0.0130     4.0087     4.0087    -0.0000
  3 C      5.8450     6.0000     0.1550     3.9512     3.9512    -0.0000
  4 C      6.0268     6.0000    -0.0268     3.8760     3.8760    -0.0000
  5 H      0.9620     1.0000     0.0380     0.9773     0.9773    -0.0000
  6 H      0.9705     1.0000     0.0295     0.9800     0.9800    -0.0000
  7 H      0.9687     1.0000     0.0313     0.9894     0.9894    -0.0000
  8 H      0.9853     1.0000     0.0147     0.9926     0.9926    -0.0000
  9 H      0.9630     1.0000     0.0370     0.9832     0.9832     0.0000
 10 H      0.9793     1.0000     0.0207     0.9807     0.9807    -0.0000
 11 H      0.9943     1.0000     0.0057     0.9808     0.9808    -0.0000
 12 H      1.0241     1.0000    -0.0241     0.9724     0.9724     0.0000
 13 O      8.3298     8.0000    -0.3298     2.1613     2.1613    -0.0000

  Mayer bond orders larger than 0.100000
B(  0-C ,  2-C ) :   1.5984 B(  0-C ,  3-C ) :   1.4747 B(  0-C , 11-H ) :   0.9575 
B(  1-C ,  4-C ) :   1.5465 B(  1-C , 12-H ) :   0.9518 B(  1-C , 13-O ) :   1.5608 
B(  2-C ,  4-C ) :   0.3555 B(  2-C ,  5-H ) :   0.9511 B(  2-C ,  6-H ) :   0.9416 
B(  2-C , 13-O ) :   0.1095 B(  3-C ,  4-C ) :   0.1183 B(  3-C ,  7-H ) :   0.9541 
B(  3-C ,  9-H ) :   0.9517 B(  3-C , 13-O ) :   0.4142 B(  4-C ,  8-H ) :   0.9306 
B(  4-C , 10-H ) :   0.9467 

-------
TIMINGS
-------

Total SCF time: 0 days 0 hours 0 min 9 sec 

Total time                  ....       9.542 sec
Sum of individual times     ....       9.029 sec  ( 94.6%)

SCF preparation             ....       0.199 sec  (  2.1%)
Fock matrix formation       ....       8.588 sec  ( 90.0%)
  Startup                   ....       0.005 sec  (  0.1% of F)
  Split-RI-J                ....       0.708 sec  (  8.2% of F)
  Chain of spheres X        ....       6.367 sec  ( 74.1% of F)
  XC integration            ....       1.823 sec  ( 21.2% of F)
    XC Preparation          ....       0.000 sec  (  0.0% of XC)
    Basis function eval.    ....       0.582 sec  ( 31.9% of XC)
    Density eval.           ....       0.323 sec  ( 17.7% of XC)
    XC-Functional eval.     ....       0.106 sec  (  5.8% of XC)
    XC-Potential eval.      ....       0.381 sec  ( 20.9% of XC)
Diagonalization             ....       0.000 sec  (  0.0%)
Density matrix formation    ....       0.033 sec  (  0.4%)
Total Energy calculation    ....       0.018 sec  (  0.2%)
Population analysis         ....       0.013 sec  (  0.1%)
Orbital Transformation      ....       0.017 sec  (  0.2%)
Orbital Orthonormalization  ....       0.000 sec  (  0.0%)
DIIS solution               ....       0.083 sec  (  0.9%)
SOSCF solution              ....       0.078 sec  (  0.8%)
Finished LeanSCF after   9.6 sec

Maximum memory used throughout the entire LEANSCF-calculation: 11.0 MB


-------------------------------------------------------------------------------
                          DFT DISPERSION CORRECTION                            
                                                                               
                              DFTD3 V3.1  Rev 1                                
                          USING Becke-Johnson damping                          
-------------------------------------------------------------------------------
The B3LYP functional is recognized
Active option DFTDOPT                   ...         4   

molecular C6(AA) [au] = 1815.277999 


            DFT-D V3
 parameters
 s6 scaling factor         :     1.0000 
 a1 scaling factor         :     0.3981 
 s8 scaling factor         :     1.9889 
 a2 scaling factor         :     4.4211 
 ad hoc parameters k1-k3   :    16.0000     1.3333    -4.0000 

 Edisp/kcal,au: -13.097081186487  -0.020871525181 
 E6   /kcal   :  -6.261251411 
 E8   /kcal   :  -6.835829775 
 % E8         :  52.193535932 

-------------------------   ----------------
Dispersion correction           -0.020871525
-------------------------   ----------------


-------------------------   --------------------
FINAL SINGLE POINT ENERGY      -270.109532740212
-------------------------   --------------------



           ************************************************************
           *        Program running with 6 parallel MPI-processes     *
           *              working on a common directory               *
           ************************************************************
------------------------------------------------------------------------------
                         ORCA SCF GRADIENT CALCULATION
------------------------------------------------------------------------------

Nuc. rep. gradient        (SHARK) ... done (  0.0 sec)
HCore & Overlap gradient  (SHARK) ... done (  0.0 sec)
Split-RIJ-J gradient      (SHARK) ... done (  0.2 sec)
done (  4.3 sec)
XC gradient                       ... done (  0.8 sec)
Dispersion correction             ... done (  0.1 sec)

-------------------
DISPERSION GRADIENT
-------------------

   1   C   :   -0.000547866   -0.000277743   -0.000119504
   2   C   :    0.000731239    0.000055545   -0.000134418
   3   C   :   -0.000455878    0.000138981   -0.000015110
   4   C   :    0.000762981   -0.000190148    0.000049571
   5   C   :    0.000452031    0.000453093    0.000005964
   6   H   :   -0.000290483    0.000179912   -0.000138728
   7   H   :   -0.000272387    0.000212952    0.000088222
   8   H   :   -0.000126969   -0.000258548    0.000211146
   9   H   :    0.000196685    0.000297072    0.000154250
  10   H   :   -0.000079367   -0.000226760    0.000092583
  11   H   :    0.000210375    0.000250054   -0.000048582
  12   H   :   -0.000253053   -0.000149889   -0.000203763
  13   H   :    0.000326043   -0.000019379   -0.000162389
  14   O   :   -0.000653351   -0.000465143    0.000220757

Difference to translation invariance:
           :   -0.0000000000    0.0000000000   -0.0000000000

Difference to rotation invariance:
           :   -0.0000000000   -0.0000000000   -0.0000000000

Norm of the Dispersion gradient    ...    0.0019685766
RMS gradient                       ...    0.0003037580
MAX gradient                       ...    0.0007629814

------------------
CARTESIAN GRADIENT
------------------

   1   C   :   -0.000019225    0.000023283   -0.000049824
   2   C   :    0.000022884   -0.000077651   -0.000051184
   3   C   :   -0.000008257    0.000007888   -0.000039352
   4   C   :    0.000050088    0.000005831    0.000009205
   5   C   :   -0.000015030    0.000064988    0.000101594
   6   H   :    0.000003099   -0.000052183    0.000077399
   7   H   :   -0.000004555   -0.000013404   -0.000035864
   8   H   :   -0.000006276    0.000054747    0.000030965
   9   H   :    0.000005333    0.000001559    0.000044811
  10   H   :   -0.000009757   -0.000012162    0.000008458
  11   H   :    0.000025630   -0.000088016   -0.000043485
  12   H   :   -0.000026293   -0.000012596   -0.000025684
  13   H   :   -0.000047932   -0.000028341    0.000096445
  14   O   :    0.000030293    0.000126059   -0.000123484

Difference to translation invariance:
           :    0.0000000000   -0.0000000001    0.0000000000

Difference to rotation invariance:
           :   -0.0001246697    0.0000573843   -0.0000380869

Norm of the Cartesian gradient     ...    0.0003232134
RMS gradient                       ...    0.0000498729
MAX gradient                       ...    0.0001260590

-------
TIMINGS
-------

Total SCF gradient time     ....        5.434 sec

Densities                   ....       0.000 sec  (  0.0%)
One electron gradient       ....       0.038 sec  (  0.7%)
RI-J Coulomb gradient       ....       0.241 sec  (  4.4%)
COSX gradient               ....       4.328 sec  ( 79.7%)
XC gradient                 ....       0.773 sec  ( 14.2%)

Maximum memory used throughout the entire SCFGRAD-calculation: 28.1 MB


           ************************************************************
           *        Program running with 6 parallel MPI-processes     *
           *              working on a common directory               *
           ************************************************************

------------------------------------------------------------------------------
                              ORCA PROPERTY CALCULATIONS
------------------------------------------------------------------------------

GBWName                                 ... orca.gbw
Number of atoms                         ...     14
Number of basis functions               ...    124
Max core memory                         ...   4096 MB

Electric properties:
Dipole moment                           ... YES
Quadrupole moment                       ...  NO
Static polarizability (Dipole/Dipole)   ...  NO
Static polarizability (Dipole/Quad.)    ...  NO
Static polarizability (Quad./Quad.)     ...  NO
Static polarizability (Velocity)        ...  NO
Static hyperpolarizability              ...  NO

Atomic electric properties:
Dipole moment                           ...  NO
Quadrupole moment                       ...  NO
Static polarizability                   ...  NO

Choice of electric origin               ... Center of mass
Position of electric origin             ...     0.363015    -0.397646     0.103114

General magnetic properties:
Magnetizability                         ...  NO

EPR properties:
g-Tensor (aka g-matrix)                 ...  NO
Zero-Field splitting spin-orbit         ...  NO
Zero-field splitting spin-spin          ...  NO
Hyperfine couplings                     ...  NO (   0 nuclei)
Quadrupole couplings                    ...  NO (   0 nuclei)
Contact density                         ...  NO (   0 nuclei)

NMR properties:
Chemical shifts                         ...  NO (   0 nuclei)
Spin-rotation constants                 ...  NO (   0 nuclei)
Spin-spin couplings                     ...  NO (   0 nuclei,    0 pairs)

Choice of magnetic origin               ... GIAO
Position of magnetic origin             ...     0.000000     0.000000     0.000000

Properties with geometric perturbations:
SCF Hessian                             ...  NO
IR spectrum                             ...  NO
VCD spectrum                            ...  NO
X-ray spectroscopy properties:
SCF XES/XAS/RIXS spectra                ...  NO

SCF SOC stabilization energy            ...  NO
Diagonal Born-Oppenheimer correction    ...  NO

-------------
DIPOLE MOMENT
-------------

Method             : SCF
Type of density    : Electron Density
Multiplicity       :   1
Irrep              :   0
Energy             :  -270.0886612150302426 Eh
Basis              : AO
                                X                 Y                 Z
Electronic contribution:      1.672839743      -2.290919358       0.462380421
Nuclear contribution   :     -2.354423240       2.713642821      -0.652951121
                        -----------------------------------------
Total Dipole Moment    :     -0.681583497       0.422723463      -0.190570701
                        -----------------------------------------
Magnitude (a.u.)       :      0.824359376
Magnitude (Debye)      :      2.095355014



--------------------
Rotational spectrum 
--------------------
 
Rotational constants in cm-1:             0.158973             0.121319             0.079045 
Rotational constants in MHz :          4765.896897          3637.044591          2369.701428 

Dipole components along the rotational axes: 
x,y,z [a.u.] :    -0.536684     0.624724    -0.035475 
x,y,z [Debye]:    -1.364143     1.587922    -0.090170 

 

Dipole moment calculation done in   0.0 sec 

Maximum memory used throughout the entire PROP-calculation: 6.2 MB

--------------------------------
SUGGESTED CITATIONS FOR THIS RUN
--------------------------------

Below you find a list of papers that are relevant to this ORCA run
We neither can nor want to force you to cite these papers, but we appreciate if you do
You receive ORCA, which is the product of decades of hard work by many enthusiastic individuals, for free
The only thing we kindly ask in return is that you cite our papers,
We deeply appreciate it, if you show your appreciation for ORCA by not just citing the generic ORCA reference.

Please note that relegating all ORCA citations to the supporting information does *not* help us.
SI sections are not indexed - citations you put there will not count into any citation statistics
But we need these citations in order to attract the funding resources that allow us to do what we are doing

Therefore, if you are a happy ORCA user, please consider citing a few of the papers listed below in the main body of your paper

In addition to the list printed below, the program has created the file orca.bibtex that contains the list in bibtex format
You can import this file easily into all common literature databanks and citation aid programs


List of essential papers. We consider these as the minimum necessary citations

  1. Neese, F.
     Software update: the ORCA program system, version 6.0
     WIRES Comput. Molec. Sci. 2025 15(1), e70019
     doi.org/10.1002/wcms.7019

List of papers to cite with high priority. The work reported in these papers was absolutely
necessary for this run to complete.
Our perspective: the developers of density functionals and basis sets usually get cited in chemistry papers
Good! But without the algorithms to do something with them, the functionals or basis sets would not do anything.
Hence, in our opinion, the algorithm design and method developments papers are equally worthy of getting cited

  1. Neese, F.
     An improvement of the resolution of the identity approximation for the formation of the Coulomb matrix
     J. Comp. Chem. 2003 24(14), 1740-1747
     doi.org/10.1002/jcc.10318
  2. Neese, F.; Wennmohs, F.; Hansen, A.; Becker, U.
     Efficient, approximate and parallel Hartree-Fock and hybrid DFT calculations. A 'chain-of-spheres' algorithm for the Hartree-Fock exchange
     Chem. Phys. 2009 356(1-3), 98-109
     doi.org/10.1016/j.chemphys.2008.10.036
  3. Grimme, S.; Antony, J.; Ehrlich, S.; Krieg, H.
     A consistent and accurate ab initio parametrization of density functional dispersion correction (DFT-D) for the 94 elements H-Pu
     J. Chem. Phys. 2010 132 , 154104
     doi.org/10.1063/1.3382344
  4. Grimme, S.; Ehrlich, S.; Goerigk, L.
     Effect of the damping function in dispersion corrected density functional theory
     J. Comput. Chem. 2011 32(7), 1456-1465
     doi.org/10.1002/jcc.21759
  5. Helmich-Paris, B.; de Souza, B.; Neese, F.; Izsák, R.
     An improved chain of spheres for exchange algorithm
     J. Chem. Phys. 2021 155(10), 104109
     doi.org/10.1063/5.0058766
  6. Neese, F.
     The SHARK Integral Generation and Digestion System
     J. Comp. Chem. 2022 44(3), 381
     doi.org/10.1002/jcc.26942

List of suggested additional citations. These are papers that are important in the 'surrounding' of 
of this run, or papers that preceded the highly important papers. If you like your results we are grateful for a citation.

  1. Izsak, R.; Neese, F.
     An overlap fitted chain of spheres exchange method
     J. Chem. Phys. 2011 135 , 144105
     doi.org/10.1063/1.3646921
  2. Izsak, R.; Hansen, A.; Neese, F.
     The resolution of identity and chain of spheres approximations for the LPNO-CCSD singles Fock term
     Molec. Phys. 2012 110 , 2413-2417
     doi.org/10.1080/00268976.2012.687466
  3. Neese, F.
     The ORCA program system
     WIRES Comput. Molec. Sci. 2012 2(1), 73-78
     doi.org/10.1002/wcms.81
  4. Izsak, R.; Neese, F.; Klopper, W.
     Robust fitting techniques in the chain of spheres approximation to the Fock exchange: The role of the complementary space
     J. Chem. Phys. 2013 139 , 
     doi.org/10.1063/1.4819264
  5. Neese, F.
     Software update: the ORCA program system, version 4.0
     WIRES Comput. Molec. Sci. 2018 8(1), 1-6
     doi.org/10.1002/wcms.1327
  6. Neese, F.; Wennmohs, F.; Becker, U.; Riplinger, C.
     The ORCA quantum chemistry program package
     J. Chem. Phys. 2020 152(22), 224108
     doi.org/10.1063/5.0004608
  7. Neese, F.
     Software update: The ORCA program system—Version 5.0
     WIRES Comput. Molec. Sci. 2022 12(1), e1606
     doi.org/10.1002/wcms.1606

List of optional additional citations

  1. Neese, F.
     Approximate second-order SCF convergence for spin unrestricted wavefunctions
     Chem. Phys. Lett. 2000 325(1-3), 93-98
     doi.org/10.1016/s0009-2614(00)00662-x

Timings for individual modules:

Sum of individual times          ...       18.331 sec (=   0.306 min)
Startup calculation              ...        1.415 sec (=   0.024 min)   7.7 %
SCF iterations                   ...       10.526 sec (=   0.175 min)  57.4 %
Property calculations            ...        0.454 sec (=   0.008 min)   2.5 %
SCF Gradient evaluation          ...        5.936 sec (=   0.099 min)  32.4 %
                             ****ORCA TERMINATED NORMALLY****
TOTAL RUN TIME: 0 days 0 hours 0 minutes 18 seconds 901 msec
