
                                 *****************
                                 * O   R   C   A *
                                 *****************

                                            #,                                       
                                            ###                                      
                                            ####                                     
                                            #####                                    
                                            ######                                   
                                           ########,                                 
                                     ,,################,,,,,                         
                               ,,#################################,,                 
                          ,,##########################################,,             
                       ,#########################################, ''#####,          
                    ,#############################################,,   '####,        
                  ,##################################################,,,,####,       
                ,###########''''           ''''###############################       
              ,#####''   ,,,,##########,,,,          '''####'''          '####       
            ,##' ,,,,###########################,,,                        '##       
           ' ,,###''''                  '''############,,,                           
         ,,##''                                '''############,,,,        ,,,,,,###''
      ,#''                                            '''#######################'''  
     '                                                          ''''####''''         
             ,#######,   #######,   ,#######,      ##                                
            ,#'     '#,  ##    ##  ,#'     '#,    #''#        ,####,    ,#,          
            ##       ##  ##   ,#'  ##            #'  '#       #'       ,# #          
            ##       ##  #######   ##           ,######,      #####,      #          
            '#,     ,#'  ##    ##  '#,     ,#' ,#      #,     #,   #      #          
             '#######'   ##     ##  '#######'  #'      '#     '####' #    #          



                #########################################################
                #                        -***-                          #
                #          Department of theory and spectroscopy        #
                #                                                       #
                #                      Frank Neese                      #
                #                                                       #
                #     Directorship, Architecture, Infrastructure        #
                #                    SHARK, DRIVERS                     #
                #        Core code/Algorithms in most modules           #
                #                                                       #
                #        Max Planck Institute fuer Kohlenforschung      #
                #                Kaiser Wilhelm Platz 1                 #
                #                 D-45470 Muelheim/Ruhr                 #
                #                      Germany                          #
                #                                                       #
                #                  All rights reserved                  #
                #                        -***-                          #
                #########################################################


                         Program Version 6.1.0  -  RELEASE   -
                                (GIT: $679e74b$)
                          ($2025-06-10 18:02:51 +0200$)


 With contributions from (in alphabetic order):
[Max-Planck-Institut fuer Kohlenforschung]                               
  Daniel Aravena         : Magnetic Suceptibility                        
  Michael Atanasov       : Ab Initio Ligand Field Theory (pilot matlab implementation)
  Alexander A. Auer      : GIAO ZORA, VPT2 properties, NMR spectrum      
  Ute Becker             : All parallelization in ORCA, NUMFREQ, NUMCALC 
  Giovanni Bistoni       : ED, misc. LED, open-shell LED, HFLD           
  Dmytro Bykov           : pre 5.0 version of the SCF Hessian            
  Marcos Casanova-Páez   : Triplet and SCS-CIS(D). UHF-(DLPNO)-IP/EA/STEOM-CCSD. UHF-CVS-IP/STEOM-CCSD   
  Vijay G. Chilkuri      : MRCI spin determinant printing, contributions to CSF-ICE 
  Pauline Colinet        : FMM embedding                                 
  Dipayan Datta          : RHF DLPNO-CCSD density                        
  Achintya Kumar Dutta   : EOM-CC, STEOM-CC                              
  Nicolas Foglia         : Exact transition moments, OPA infrastructure, MCD improvements    
  Dmitry Ganyushin       : Spin-Orbit,Spin-Spin,Magnetic field MRCI      
  Miquel Garcia-Rates    : C-PCM and meta-GGA Hessian, CCSD/C-PCM, Gaussian charge scheme 
  Tiago L. C. Gouveia    : GS-ROHF, GS-ROCIS                             
  Yang Guo               : DLPNO-NEVPT2, F12-NEVPT2, CIM, IAO-localization        
  Andreas Hansen         : Spin unrestricted coupled pair/coupled cluster methods 
  Ingolf Harden          : AUTO-CI MPn and infrastructure                
  Benjamin Helmich-Paris : MC-RPA, TRAH-(SCF,CASSCF), AVAS, COSX integrals, SCF dyn. polar., MC-PDFT, srDFT 
  Lee Huntington         : MR-EOM, pCC                                   
  Robert Izsak           : Overlap fitted RIJCOSX, COSX-SCS-MP3, EOM     
  Riya Kayal             : Wick's Theorem for AUTO-CI, AUTO-CI UHF-CCSDT 
  Emily Kempfer          : AUTO-CI RHF CISDT and CCSDT, approximate NEVPT4
  Christian Kollmar      : KDIIS, OOCD, Brueckner-CCSD(T), CCSD density, CASPT2, CASPT2-K, improved NEVPT2 
  Axel Koslowski         : Symmetry handling                             
  Simone Kossmann        : meta-GGA functionals, TD-DFT gradient, OOMP2, (MP2 Hessian; deprecated post 5.0) 
  Lucas Lang             : DCDCAS, Hyperfine gauge corrections, ICE-SOC+SSC
  Marvin Lechner         : AUTO-CI (C++ implementation), FIC-MRCC        
  Spencer Leger          : CASSCF response                               
  Dagmar Lenk            : GEPOL surface, SMD, ORCA-2-JSON               
  Dimitrios Liakos       : Extrapolation schemes; Compound Job, Property file
  Dimitrios Manganas     : Further ROCIS development; embedding schemes. LFT, Crystal Embedding 
  Dimitrios Pantazis     : SARC Basis sets                               
  Anastasios Papadopoulos: AUTO-CI, single reference methods and gradients 
  Taras Petrenko         : pre 6.0 DFT Hessian and TD-DFT gradient,  ECA, NRVS 
  Petra Pikulova         : Analytic Raman intensities                    
  Peter Pinski           : DLPNO-MP2, DLPNO-MP2 Gradient                 
  Shashank Vittal Rao    : ES-AILFT, MagRelax                            
  Christoph Reimann      : Effective Core Potentials                     
  Marius Retegan         : Local ZFS, SOC                                
  Christoph Riplinger    : Optimizer, TS searches, QM/MM, DLPNO-CCSD(T), (RO)-DLPNO pert. Triples 
  Michael Roemelt        : Original ROCIS implementation, recursive CI coupling coefficients
  Masaaki Saitow         : Open-shell DLPNO-CCSD energy and density      
  Barbara Sandhoefer     : DKH picture change effects                    
  Yorick L. A. Schmerwitz: GMF and freeze-and-release deltaSCF, NEB S-IDPP initial path                    
  Kantharuban Sivalingam : CASSCF convergence/infrastructure, NEVPT2, NEVPT3, NEVPT4(SD), FIC-MRCI and CEPA variants
  Bernardo de Souza      : ESD, SOC TD-DFT                               
  Georgi L. Stoychev     : AutoAux, RI-MP2 NMR, DLPNO-MP2 response, X2C  
  Van Anh Tran           : RI-MP2 g-tensors                              
  Willem Van den Heuvel  : Paramagnetic NMR                              
  Zikuan Wang            : NOTCH, Electric field optimization            
  Frank Wennmohs         : Technical directorship and infrastructure     
  Hang Xu                : AUTO-CI-Response properties                   
                                                                         
[FACCTs GmbH]                                                            
  Markus Bursch, Nicolas Foglia, Miquel Garcia-Rates, Ingolf Harden, Hagen Neugebauer, Anastasios Papadopoulos, 
  Christoph Riplinger, Bernardo de Souza, Georgi L. Stoychev                                                    
                                                                 
  APM, various basis sets, CI-OPT, improved COSX, DLPNO-Multilevel,           
  DOCKER, DRACO, updates on ESD, Fragmentator, GOAT, IRC, LR-CPCM, L-BFGS, MBIS, meta-GGA TD-DFT gradient, ML-optimized integration grids, 
  MM, NACMEs, nearIR, NEB, NEB-TS, NL-DFT gradient (VV10), 2- and 3-layer-ONIOM, interface openCOSMO-RS, QMMM,   
  Crystal-QMMM, RESP, rigid body optimization, SF, symmetry and pop. for TD-DFT, various functionals, SOLVATOR                                   
                                                                         
[Other institutions]                                                     
  V. Asgeirsson          : NEB                                           
  Christoph Bannwarth    : sTDA-DFT, sTD-DFT, PBEh-3c, B97-3c, D3        
  Giovanni Bistoni       : ETS/NOCV, ADLD/ADEX, COVALED                  
  Martin Brehm           : Molecular dynamics                            
  Ronald Cardenas        : ETS/NOCV                                      
  Martina Colucci        : COVALED                                       
  Sebastian Ehlert       : rSCAN, r2SCAN, r2SCAN-3c, D4, dhf basis sets  
  Marvin Friede          : D4 for Fr, Ra, Ac-Lr                          
  Lars Goerigk           : TD-DFT with DH, B97 family of functionals     
  Stefan Grimme          : VdW corrections, initial TS optimization, DFT functionals, gCP, sTDA/sTD-DF 
  Waldemar Hujo          : DFT-NL                                        
  H. Jonsson             : NEB                                           
  Holger Kruse           : gCP                                           
  Marcel Mueller         : wB97X-3c, vDZP basis set                      
  Hagen Neugebauer       : wr2SCAN, Native XTB                           
  Gianluca Regni         : ADLD/ADEX                                     
  Tobias Risthaus        : pre 6.0 range-separated hybrid DFT and stability analysis
  Lukas Wittmann         : regularized MP2, r2SCAN double-hybrids, wr2SCAN        
                                                                         
We gratefully acknowledge several colleagues who have allowed us to      
interface, adapt or use parts of their codes:                            
  Ed Valeev, F. Pavosevic, A. Kumar             : LibInt (2-el integral package), F12 methods 
  Garnet Chan, S. Sharma, J. Yang, R. Olivares  : DMRG                   
  Ulf Ekstrom                                   : XCFun DFT Library      
  Mihaly Kallay                                 : mrcc  (arbitrary order and MRCC methods)
  Frank Weinhold                                : gennbo (NPA and NBO analysis)           
  Simon Mueller                                 : openCOSMO-RS                            
  Christopher J. Cramer and Donald G. Truhlar   : smd solvation model                     
  S Lehtola, MJT Oliveira, MAL Marques          : LibXC Library                           
  Liviu Ungur et al                             : ANISO software                          


 Your calculation uses the libint2 library for the computation of 2-el integrals
 For citations please refer to: http://libint.valeyev.net

 Your ORCA version has been built with support for libXC version: 7.0.0
 For citations please refer to: https://libxc.gitlab.io

 This ORCA versions uses:
   CBLAS   interface :  Fast vector & matrix operations
   LAPACKE interface :  Fast linear algebra routines
   SCALAPACK package :  Parallel linear algebra routines
   Shared memory     :  Shared parallel matrices
   BLAS/LAPACK       :  OpenBLAS 0.3.29  USE64BITINT DYNAMIC_ARCH NO_AFFINITY Zen SINGLE_THREADED
        Core in use  :  Zen
   Copyright (c) 2011-2014, The OpenBLAS Project


  ***********************************
  * Starting time: Wed Sep 10 13:34:08 2025
  * Host name:     wyk-Server
  * Process ID:    2280215
  * Working dir.:  /home/wyk/Documents/code/openQDC/MGMR/singlepointcalc/33/react
  ***********************************

Your calculation utilizes the atom-pairwise dispersion correction
with the Becke-Johnson damping scheme (D3BJ)


Warning: RI is on but no J-basis has been assigned. Assigning Def2/J (nothing to worry about!)
================================================================================

----- Orbital basis set information -----
Your calculation utilizes the basis: def2-SVP
   F. Weigend and R. Ahlrichs, Phys. Chem. Chem. Phys. 7, 3297 (2005).

----- AuxJ basis set information -----
Your calculation utilizes the auxiliary basis: def2/J
   H-Rn: F. Weigend, Phys. Chem. Chem. Phys. 8, 1057 (2006).
   Fr-Lr: K. Eichkorn, F. Weigend, O. Treutler, R. Ahlrichs; Theor. Chem. Acc. 97, 119 (1997).

================================================================================
                                        WARNINGS
                       Please study these warnings very carefully!
================================================================================


================================================================================
                                       INPUT FILE
================================================================================
NAME = orca.inp
|  1> ! B3LYP def2-SVP d3 EnGrad 
|  2> %pal nprocs 6 end 
|  3> *xyz 0 1 
|  4> C   -1.03116218882737 -0.84198810294744 -4.73611408335936
|  5> O   0.02529072100854 -1.55278148199842 -5.25873380816838
|  6> C   -0.09925602949816 -0.19716047800785 -5.65718399765059
|  7> F   -0.98327583115577 -0.5696156612517 -3.4404060521928
|  8> F   -2.2476464673575 -1.24570160937506 -5.06860856342987
|  9> C   -0.3391824978102 0.05415717630332 -7.14539931759059
| 10> F   0.83087863026519 0.63434854661904 -5.17626731370155
| 11> F   0.78335444783359 -0.16694466684749 -7.83086523152225
| 12> F   -1.29205908617353 -0.74803317403435 -7.61494943974299
| 13> F   -0.71156269828482 1.32304045153996 -7.32803119264159
| 14> *
| 15> 
| 16>                          ****END OF INPUT****
================================================================================

                     *******************************
                     * Energy+Gradient Calculation *
                     *******************************

---------------------------------
CARTESIAN COORDINATES (ANGSTROEM)
---------------------------------
  C     -1.031162   -0.841988   -4.736114
  O      0.025291   -1.552781   -5.258734
  C     -0.099256   -0.197160   -5.657184
  F     -0.983276   -0.569616   -3.440406
  F     -2.247646   -1.245702   -5.068609
  C     -0.339182    0.054157   -7.145399
  F      0.830879    0.634349   -5.176267
  F      0.783354   -0.166945   -7.830865
  F     -1.292059   -0.748033   -7.614949
  F     -0.711563    1.323040   -7.328031

----------------------------
CARTESIAN COORDINATES (A.U.)
----------------------------
  NO LB      ZA    FRAG     MASS         X           Y           Z
   0 C     6.0000    0    12.011   -1.948614   -1.591127   -8.949959
   1 O     8.0000    0    15.999    0.047793   -2.934332   -9.937567
   2 C     6.0000    0    12.011   -0.187567   -0.372579  -10.690528
   3 F     9.0000    0    18.998   -1.858122   -1.076418   -6.501425
   4 F     9.0000    0    18.998   -4.247436   -2.354035   -9.578282
   5 C     6.0000    0    12.011   -0.640962    0.102342  -13.502848
   6 F     9.0000    0    18.998    1.570133    1.198745   -9.781728
   7 F     9.0000    0    18.998    1.480325   -0.315480  -14.798191
   8 F     9.0000    0    18.998   -2.441638   -1.413578  -14.390169
   9 F     9.0000    0    18.998   -1.344659    2.500184  -13.847972

--------------------------------
INTERNAL COORDINATES (ANGSTROEM)
--------------------------------
 C      0   0   0     0.000000000000     0.00000000     0.00000000
 O      1   0   0     1.376390698589     0.00000000     0.00000000
 C      2   1   0     1.418443778590    62.98136489     0.00000000
 F      1   2   3     1.324892128543   116.72846050   248.95425917
 F      1   2   3     1.324149226659   116.89470950   115.79059614
 C      3   2   1     1.528237583646   116.39141509   242.67961543
 F      3   2   1     1.337100819022   115.60836357   109.83368801
 F      6   3   2     1.333731134278   109.94324632   286.52994287
 F      6   3   2     1.331150054667   110.90272722    46.82417414
 F      6   3   2     1.334948007102   109.47101063   167.08104405

---------------------------
INTERNAL COORDINATES (A.U.)
---------------------------
 C      0   0   0     0.000000000000     0.00000000     0.00000000
 O      1   0   0     2.601001473610     0.00000000     0.00000000
 C      2   1   0     2.680470277899    62.98136489     0.00000000
 F      1   2   3     2.503683279935   116.72846050   248.95425917
 F      1   2   3     2.502279398828   116.89470950   115.79059614
 C      3   2   1     2.887950500657   116.39141509   242.67961543
 F      3   2   1     2.526754361394   115.60836357   109.83368801
 F      6   3   2     2.520386580069   109.94324632   286.52994287
 F      6   3   2     2.515509046474   110.90272722    46.82417414
 F      6   3   2     2.522686136447   109.47101063   167.08104405

---------------------
BASIS SET INFORMATION
---------------------
There are 3 groups of distinct atoms

 Group   1 Type C   : 7s4p1d contracted to 3s2p1d pattern {511/31/1}
 Group   2 Type O   : 7s4p1d contracted to 3s2p1d pattern {511/31/1}
 Group   3 Type F   : 7s4p1d contracted to 3s2p1d pattern {511/31/1}

Atom   0C    basis set group =>   1
Atom   1O    basis set group =>   2
Atom   2C    basis set group =>   1
Atom   3F    basis set group =>   3
Atom   4F    basis set group =>   3
Atom   5C    basis set group =>   1
Atom   6F    basis set group =>   3
Atom   7F    basis set group =>   3
Atom   8F    basis set group =>   3
Atom   9F    basis set group =>   3
---------------------------------
AUXILIARY/J BASIS SET INFORMATION
---------------------------------
There are 3 groups of distinct atoms

 Group   1 Type C   : 12s5p4d2f1g contracted to 6s4p3d1f1g pattern {711111/2111/211/2/1}
 Group   2 Type O   : 12s5p4d2f1g contracted to 6s4p3d1f1g pattern {711111/2111/211/2/1}
 Group   3 Type F   : 12s5p4d2f1g contracted to 6s4p3d1f1g pattern {711111/2111/211/2/1}

Atom   0C    basis set group =>   1
Atom   1O    basis set group =>   2
Atom   2C    basis set group =>   1
Atom   3F    basis set group =>   3
Atom   4F    basis set group =>   3
Atom   5C    basis set group =>   1
Atom   6F    basis set group =>   3
Atom   7F    basis set group =>   3
Atom   8F    basis set group =>   3
Atom   9F    basis set group =>   3


           ************************************************************
           *        Program running with 6 parallel MPI-processes     *
           *              working on a common directory               *
           ************************************************************
------------------------------------------------------------------------------
                             ORCA STARTUP CALCULATIONS
                           -- RI-GTO INTEGRALS CHOSEN --
------------------------------------------------------------------------------
------------------------------------------------------------------------------
                   ___                                                        
                  /   \      - P O W E R E D   B Y -                         
                 /     \                                                     
                 |  |  |   _    _      __       _____    __    __             
                 |  |  |  | |  | |    /  \     |  _  \  |  |  /  |          
                  \  \/   | |  | |   /    \    | | | |  |  | /  /          
                 / \  \   | |__| |  /  /\  \   | |_| |  |  |/  /          
                |  |  |   |  __  | /  /__\  \  |    /   |      \           
                |  |  |   | |  | | |   __   |  |    \   |  |\   \          
                \     /   | |  | | |  |  |  |  | |\  \  |  | \   \       
                 \___/    |_|  |_| |__|  |__|  |_| \__\ |__|  \__/        
                                                                              
                      - O R C A' S   B I G   F R I E N D -                    
                                      &                                       
                       - I N T E G R A L  F E E D E R -                       
                                                                              
 v1 FN, 2020, v2 2021, v3 2022-2024                                           
------------------------------------------------------------------------------


----------------------
SHARK INTEGRAL PACKAGE
----------------------

Number of atoms                             ...     10
Number of basis functions                   ...    140
Number of shells                            ...     60
Maximum angular momentum                    ...      2
Integral batch strategy                     ... SHARK/LIBINT Hybrid
RI-J (if used) integral strategy            ... SPLIT-RIJ (Revised 2003 algorithm where possible)
Printlevel                                  ...      1
Contraction scheme used                     ... SEGMENTED contraction
Prescreening option                         ... SCHWARTZ
   Thresh                                   ... 2.500e-11
   Tcut                                     ... 2.500e-12
   Tpresel                                  ... 2.500e-12 
Coulomb Range Separation                    ... NOT USED
Exchange Range Separation                   ... NOT USED
Multipole approximations                    ... NOT USED
Finite Nucleus Model                        ... NOT USED
CABS basis                                  ... NOT available
Auxiliary Coulomb fitting basis             ... AVAILABLE
   # of basis functions in Aux-J            ...    490
   # of shells in Aux-J                     ...    150
   Maximum angular momentum in Aux-J        ...      4
Auxiliary J/K fitting basis                 ... NOT available
Auxiliary Correlation fitting basis         ... NOT available
Auxiliary 'external' fitting basis          ... NOT available

Checking pre-screening integrals            ... done (  0.0 sec) Dimension = 60
   => SHARK Basis and OBASIS are compatible. Storing Pre-screening
Shell pair information
Shell pair cut-off parameter TPreSel        ...   2.5e-12
Total number of shell pairs                 ...      1830
Shell pairs after pre-screening             ...      1649
Total number of primitive shell pairs       ...      7390
Primitive shell pairs kept                  ...      4699
          la=0 lb=0:    396 shell pairs
          la=1 lb=0:    558 shell pairs
          la=1 lb=1:    203 shell pairs
          la=2 lb=0:    254 shell pairs
          la=2 lb=1:    188 shell pairs
          la=2 lb=2:     50 shell pairs

Checking whether 4 symmetric matrices of dimension 140 fit in memory
:Max Core in MB      =   4096.00
 MB in use           =      5.53
 MB left             =   4090.47
 MB needed           =      0.30
 Data fit in memory  = YES
Calculating RI/J V-Matrix + Cholesky decomp.... done (  0.0 sec)
Calculating Nuclear repulsion               ... done (  0.0 sec) ENN=    636.642940965868 Eh

Diagonalization of the overlap matrix:
Smallest eigenvalue                        ... 1.368e-03
Time for diagonalization                   ...    0.003 sec
Threshold for overlap eigenvalues          ... 1.000e-07
Number of eigenvalues below threshold      ... 0
Time for construction of square roots      ...    0.001 sec
Total time needed                          ...    0.005 sec

-------------------
DFT GRID GENERATION
-------------------

General Integration Accuracy     IntAcc      ... 4.388
Radial Grid Type                 RadialGrid  ... OptM3 with GC (2021)
Angular Grid (max. ang.)         AngularGrid ... 4 (Lebedev-302)
Angular grid pruning method      GridPruning ... 4 (adaptive)
Weight generation scheme         WeightScheme... mBecke (2022)
Basis function cutoff            BFCut       ... 1.0000e-11
Integration weight cutoff        WCut        ... 1.0000e-14
Partially contracted basis set               ... off
Rotationally invariant grid construction     ... off
Angular grids for H and He will be reduced by one unit

Total number of grid points                  ...    60903
Total number of batches                      ...      958
Average number of points per batch           ...       63
Average number of grid points per atom       ...     6090

--------------------
COSX GRID GENERATION
--------------------

GRIDX 1
-------
General Integration Accuracy     IntAcc      ... 3.816
Radial Grid Type                 RadialGrid  ... OptM3 with GC (2021)
Angular Grid (max. ang.)         AngularGrid ... 1 (Lebedev-50)
Angular grid pruning method      GridPruning ... 4 (adaptive)
Weight generation scheme         WeightScheme... mBecke (2022)
Basis function cutoff            BFCut       ... 1.0000e-11
Integration weight cutoff        WCut        ... 1.0000e-14
Partially contracted basis set               ... on
Rotationally invariant grid construction     ... off
Angular grids for H and He will be reduced by one unit

Total number of grid points                  ...     7661
Total number of batches                      ...       64
Average number of points per batch           ...      119
Average number of grid points per atom       ...      766
UseSFitting                                  ... on

GRIDX 2
-------
General Integration Accuracy     IntAcc      ... 4.020
Radial Grid Type                 RadialGrid  ... OptM3 with GC (2021)
Angular Grid (max. ang.)         AngularGrid ... 2 (Lebedev-110)
Angular grid pruning method      GridPruning ... 4 (adaptive)
Weight generation scheme         WeightScheme... mBecke (2022)
Basis function cutoff            BFCut       ... 1.0000e-11
Integration weight cutoff        WCut        ... 1.0000e-14
Partially contracted basis set               ... on
Rotationally invariant grid construction     ... off
Angular grids for H and He will be reduced by one unit

Total number of grid points                  ...    18427
Total number of batches                      ...      149
Average number of points per batch           ...      123
Average number of grid points per atom       ...     1843
UseSFitting                                  ... on

GRIDX 3
-------
General Integration Accuracy     IntAcc      ... 4.338
Radial Grid Type                 RadialGrid  ... OptM3 with GC (2021)
Angular Grid (max. ang.)         AngularGrid ... 3 (Lebedev-194)
Angular grid pruning method      GridPruning ... 4 (adaptive)
Weight generation scheme         WeightScheme... mBecke (2022)
Basis function cutoff            BFCut       ... 1.0000e-11
Integration weight cutoff        WCut        ... 1.0000e-14
Partially contracted basis set               ... on
Rotationally invariant grid construction     ... off
Angular grids for H and He will be reduced by one unit

Total number of grid points                  ...    40925
Total number of batches                      ...      324
Average number of points per batch           ...      126
Average number of grid points per atom       ...     4092
UseSFitting                                  ... on
Grids setup in   0.9 sec
Initializing property integral containers    ... done (  0.0 sec)

SHARK setup successfully completed in   1.0 seconds

Maximum memory used throughout the entire STARTUP-calculation: 17.0 MB


           ************************************************************
           *        Program running with 6 parallel MPI-processes     *
           *              working on a common directory               *
           ************************************************************
-------------------------------------------------------------------------------
                                 ORCA GUESS
                   Start orbitals & Density for SCF / CASSCF
-------------------------------------------------------------------------------

------------
SCF SETTINGS
------------
Hamiltonian:
 Density Functional     Method          .... DFT(GTOs)
 Exchange Functional    Exchange        .... B88
   X-Alpha parameter    XAlpha          ....  0.666667
   Becke's b parameter  XBeta           ....  0.004200
 Correlation Functional Correlation     .... LYP
 LDA part of GGA corr.  LDAOpt          .... VWN-5
 Gradients option       PostSCFGGA      .... off
 Hybrid DFT is turned on
   Fraction HF Exchange ScalHFX         ....  0.200000
   Scaling of DF-GGA-X  ScalDFX         ....  0.720000
   Scaling of DF-GGA-C  ScalDFC         ....  0.810000
   Scaling of DF-LDA-C  ScalLDAC        ....  1.000000
   Perturbative correction              ....  0.000000
   NL short-range parameter             ....  4.800000
 RI-approximation to the Coulomb term is turned on
   Number of AuxJ basis functions       .... 490
   RIJ-COSX (HFX calculated with COS-X)).... on


General Settings:
 Integral files         IntName         .... orca
 Hartree-Fock type      HFTyp           .... RHF
 Total Charge           Charge          ....    0
 Multiplicity           Mult            ....    1
 Number of Electrons    NEL             ....   80
 Basis Dimension        Dim             ....  140
 Nuclear Repulsion      ENuc            ....    636.6429409659 Eh

Convergence Acceleration:
 AO-DIIS                CNVDIIS         .... on
   Start iteration      DIISMaxIt       ....    12
   Startup error        DIISStart       ....  0.200000
   # of expansion vecs  DIISMaxEq       ....     5
   Bias factor          DIISBfac        ....   1.050
   Max. coefficient     DIISMaxC        ....  10.000
 MO-DIIS                CNVKDIIS        .... off
 Trust-Rad. Augm. Hess. CNVTRAH         .... auto
   Auto Start mean grad. ratio tolernc. ....  1.125000
   Auto Start start iteration           ....    50
   Auto Start num. interpolation iter.  ....    10
   Max. Number of Micro iterations      ....    24
   Max. Number of Macro iterations      .... Maxiter - #DIIS iter
   Number of Davidson start vectors     ....     2
   Converg. threshold    (grad. norm)   ....   1.000e-05
   Grad. Scal. Fac. for Micro threshold ....   0.100
   Minimum threshold for Micro iter.    ....   1.000e-02
   NR start threshold (gradient norm)   ....   1.000e-04
   Initial trust radius                 ....   0.400
   Minimum AH scaling param. (alpha)    ....   1.000
   Maximum AH scaling param. (alpha)    .... 1000.000
   Quad. conv. algorithm                .... NR
   White noise on init. David. guess    .... on
   Maximum white noise                  ....   0.010
   Pseudo random numbers                .... off
   Inactive MOs                         .... canonical
   Orbital update algorithm             .... Taylor
   Preconditioner                       .... Diag
   Full preconditioner red. dimension   ....   250
 SOSCF                 CNVSOSCF           .... on
   Start iteration     SOSCFMaxIt         ....   150
   Startup grad/error  SOSCFStart         ....  0.003300
   Hessian update      SOSCFHessUp        .... L-BFGS
   Autom. constraints  SOSCFAutoConstrain .... off
 Level Shifting         CNVShift        .... on
   Level shift para.    LevelShift      ....    0.2500
   Turn off err/grad.   ShiftErr        ....    0.0010
 Zerner damping         CNVZerner       .... off
 Static damping         CNVDamp         .... on
   Fraction old density DampFac         ....    0.7000
   Max. Damping (<1)    DampMax         ....    0.9800
   Min. Damping (>=0)   DampMin         ....    0.0000
   Turn off err/grad.   DampErr         ....    0.1000

SCF Procedure:
 Maximum # iterations   MaxIter         ....   125
 SCF integral mode      SCFMode         .... Direct
   Integral package                     .... SHARK and LIBINT hybrid scheme
 Reset frequency        DirectResetFreq ....    20
 Integral Threshold     Thresh          ....  2.500e-11 Eh
 Primitive CutOff       TCut            ....  2.500e-12 Eh

Convergence Tolerance:
 Convergence Check Mode ConvCheckMode   .... Total+1el-Energy
 Convergence forced     ConvForced      .... 0
 Energy Change          TolE            ....  1.000e-08 Eh
 1-El. energy change                    ....  1.000e-05 Eh
 Orbital Gradient       TolG            ....  1.000e-05
 Orbital Rotation angle TolX            ....  1.000e-05
 DIIS Error             TolErr          ....  5.000e-07

------------------------------
INITIAL GUESS: MODEL POTENTIAL
------------------------------
Loading Hartree-Fock densities                     ... done
Calculating cut-offs                               ... done
Initializing the effective Hamiltonian             ... done
Setting up the integral package (SHARK)            ... done
Starting the Coulomb interaction                   ... done (   0.0 sec)
Making the grid                                    ... done (   0.1 sec)
Mapping shells                                     ... done
Starting the XC term evaluation                    ... done (   0.0 sec)
  promolecular density results
     # of electrons  =     79.999490227
     EX              =    -84.023621491
     EC              =     -3.013952421
     EX+EC           =    -87.037573912
Transforming the Hamiltonian                       ... done (   0.0 sec)
Diagonalizing the Hamiltonian                      ... done (   0.0 sec)
Back transforming the eigenvectors                 ... done (   0.0 sec)
Now organizing SCF variables                       ... done
                      ------------------
                      INITIAL GUESS DONE (   0.2 sec)
                      ------------------
             **** ENERGY FILE WAS UPDATED (orca.en.tmp) ****
Finished Guess after   0.3 sec
Maximum memory used throughout the entire GUESS-calculation: 8.2 MB


           ************************************************************
           *        Program running with 6 parallel MPI-processes     *
           *              working on a common directory               *
           ************************************************************

-------------------------------------------------------------------------------------------
                                      ORCA LEAN-SCF
                              memory conserving SCF solver
-------------------------------------------------------------------------------------------

----------------------------------------D-I-I-S--------------------------------------------
Iteration    Energy (Eh)           Delta-E    RMSDP     MaxDP     DIISErr   Damp  Time(sec)
-------------------------------------------------------------------------------------------
               ***  Starting incremental Fock matrix formation  ***
    1    -787.4656960532557832     0.00e+00  9.19e-03  8.46e-02  1.95e-01  0.700   0.8
    2    -787.5532906991599020    -8.76e-02  5.11e-03  6.00e-02  6.80e-02  0.700   0.5
                               ***Turning on AO-DIIS***
    3    -787.5803462793184053    -2.71e-02  1.21e-03  1.60e-02  1.89e-02  0.700   0.4
    4    -787.5991165019044047    -1.88e-02  1.61e-03  1.74e-02  1.05e-02  0.000   0.4
                              *** Initializing SOSCF ***
---------------------------------------S-O-S-C-F--------------------------------------
Iteration    Energy (Eh)           Delta-E    RMSDP     MaxDP     MaxGrad    Time(sec)
--------------------------------------------------------------------------------------
    5    -787.6428516588413231    -4.37e-02  4.75e-04  6.87e-03  2.44e-03     0.4
               *** Restarting incremental Fock matrix formation ***
    6    -787.6429037894791918    -5.21e-05  1.43e-04  1.43e-03  2.72e-04     0.8
    7    -787.6429045429482585    -7.53e-07  7.70e-05  6.23e-04  3.54e-04     0.7
    8    -787.6429073514078709    -2.81e-06  3.22e-05  3.15e-04  9.23e-05     0.6
    9    -787.6429073551461215    -3.74e-09  1.53e-05  1.42e-04  7.32e-05     0.6
                 **** Energy Check signals convergence ****

               *****************************************************
               *                     SUCCESS                       *
               *           SCF CONVERGED AFTER   9 CYCLES          *
               *****************************************************

Recomputing exchange energy using gridx3       ... done (    1.180 sec)
Old exchange energy                            :    -16.814033560 Eh
New exchange energy                            :    -16.814125405 Eh
Exchange energy change after final integration :     -0.000091846 Eh
Total energy after final integration           :   -787.642999336 Eh
             **** ENERGY FILE WAS UPDATED (orca.en.tmp) ****

----------------
TOTAL SCF ENERGY
----------------

Total Energy       :       -787.64299933586722 Eh          -21432.85564 eV

Components:
Nuclear Repulsion  :        636.64294096586775 Eh           17323.93516 eV
Electronic Energy  :      -1424.28584845615478 Eh          -38756.78829 eV
One Electron Energy:      -2357.81513813426500 Eh          -64159.41171 eV
Two Electron Energy:        933.52928967811010 Eh           25402.62342 eV

Virial components:
Potential Energy   :      -1570.94006858101943 Eh          -42747.45250 eV
Kinetic Energy     :        783.29706924515222 Eh           21314.59687 eV
Virial Ratio       :          2.00554825271452

DFT components:
N(Alpha)           :       40.000006467004 electrons
N(Beta)            :       40.000006467004 electrons
N(Total)           :       80.000012934009 electrons
E(X)               :      -67.018787174630 Eh       
E(C)               :       -3.521220564017 Eh       
E(XC)              :      -70.540007738647 Eh       

---------------
SCF CONVERGENCE
---------------

  Last Energy change         ...    3.7383e-09  Tolerance :   1.0000e-08
  Last MAX-Density change    ...    1.4164e-04  Tolerance :   1.0000e-07
  Last RMS-Density change    ...    1.5341e-05  Tolerance :   5.0000e-09
  Last DIIS Error            ...    2.4374e-03  Tolerance :   5.0000e-07
  Last Orbital Gradient      ...    7.3164e-05  Tolerance :   1.0000e-05
  Last Orbital Rotation      ...    6.3515e-05  Tolerance :   1.0000e-05


----------------
ORBITAL ENERGIES
----------------

  NO   OCC          E(Eh)            E(eV) 
   0   2.0000     -24.751190      -673.5141 
   1   2.0000     -24.750518      -673.4958 
   2   2.0000     -24.749344      -673.4639 
   3   2.0000     -24.748778      -673.4485 
   4   2.0000     -24.747793      -673.4217 
   5   2.0000     -24.745863      -673.3692 
   6   2.0000     -19.225689      -523.1576 
   7   2.0000     -10.470685      -284.9218 
   8   2.0000     -10.444009      -284.1959 
   9   2.0000     -10.381386      -282.4919 
  10   2.0000      -1.335317       -36.3358 
  11   2.0000      -1.312608       -35.7179 
  12   2.0000      -1.266509       -34.4635 
  13   2.0000      -1.241411       -33.7805 
  14   2.0000      -1.239293       -33.7229 
  15   2.0000      -1.238225       -33.6938 
  16   2.0000      -1.155926       -31.4543 
  17   2.0000      -0.790921       -21.5221 
  18   2.0000      -0.718298       -19.5459 
  19   2.0000      -0.688624       -18.7384 
  20   2.0000      -0.651768       -17.7355 
  21   2.0000      -0.638255       -17.3678 
  22   2.0000      -0.627089       -17.0640 
  23   2.0000      -0.614957       -16.7338 
  24   2.0000      -0.593768       -16.1572 
  25   2.0000      -0.577580       -15.7167 
  26   2.0000      -0.529570       -14.4103 
  27   2.0000      -0.503938       -13.7129 
  28   2.0000      -0.498509       -13.5651 
  29   2.0000      -0.494272       -13.4498 
  30   2.0000      -0.489005       -13.3065 
  31   2.0000      -0.476387       -12.9632 
  32   2.0000      -0.469344       -12.7715 
  33   2.0000      -0.459928       -12.5153 
  34   2.0000      -0.456865       -12.4319 
  35   2.0000      -0.447439       -12.1754 
  36   2.0000      -0.438618       -11.9354 
  37   2.0000      -0.417961       -11.3733 
  38   2.0000      -0.380515       -10.3543 
  39   2.0000      -0.352056        -9.5799 
  40   0.0000       0.038314         1.0426 
  41   0.0000       0.063173         1.7190 
  42   0.0000       0.126574         3.4442 
  43   0.0000       0.127821         3.4782 
  44   0.0000       0.163928         4.4607 
  45   0.0000       0.181885         4.9493 
  46   0.0000       0.199730         5.4349 
  47   0.0000       0.214641         5.8407 
  48   0.0000       0.279187         7.5971 
  49   0.0000       0.320638         8.7250 
  50   0.0000       0.326428         8.8826 
*Only the first 10 virtual orbitals were printed.

                    ********************************
                    * MULLIKEN POPULATION ANALYSIS *
                    ********************************

-----------------------
MULLIKEN ATOMIC CHARGES
-----------------------
   0 C :    0.428610
   1 O :   -0.234755
   2 C :    0.108030
   3 F :   -0.133519
   4 F :   -0.129521
   5 C :    0.557338
   6 F :   -0.159453
   7 F :   -0.147807
   8 F :   -0.140686
   9 F :   -0.148237
Sum of atomic charges:   -0.0000000

--------------------------------
MULLIKEN REDUCED ORBITAL CHARGES
--------------------------------
  0 C s       :     2.958990  s :     2.958990
      pz      :     0.763096  p :     2.429376
      px      :     0.749002
      py      :     0.917278
      dz2     :     0.045854  d :     0.183025
      dxz     :     0.041184
      dyz     :     0.029604
      dx2y2   :     0.030036
      dxy     :     0.036347

  1 O s       :     3.827875  s :     3.827875
      pz      :     1.597413  p :     4.385131
      px      :     1.465312
      py      :     1.322406
      dz2     :     0.002258  d :     0.021749
      dxz     :     0.002497
      dyz     :     0.004571
      dx2y2   :     0.006885
      dxy     :     0.005538

  2 C s       :     3.164531  s :     3.164531
      pz      :     0.988942  p :     2.605711
      px      :     0.905158
      py      :     0.711610
      dz2     :     0.023424  d :     0.121728
      dxz     :     0.016832
      dyz     :     0.023527
      dx2y2   :     0.030493
      dxy     :     0.027451

  3 F s       :     3.890968  s :     3.890968
      pz      :     1.464322  p :     5.233692
      px      :     1.887456
      py      :     1.881914
      dz2     :     0.004549  d :     0.008859
      dxz     :     0.001706
      dyz     :     0.002375
      dx2y2   :     0.000113
      dxy     :     0.000115

  4 F s       :     3.888923  s :     3.888923
      pz      :     1.861516  p :     5.231725
      px      :     1.515513
      py      :     1.854696
      dz2     :     0.001176  d :     0.008872
      dxz     :     0.002043
      dyz     :     0.000346
      dx2y2   :     0.002845
      dxy     :     0.002463

  5 C s       :     2.909243  s :     2.909243
      pz      :     0.898777  p :     2.347546
      px      :     0.723554
      py      :     0.725214
      dz2     :     0.035109  d :     0.185873
      dxz     :     0.034461
      dyz     :     0.026504
      dx2y2   :     0.045384
      dxy     :     0.044414

  6 F s       :     3.901659  s :     3.901659
      pz      :     1.844649  p :     5.249128
      px      :     1.680778
      py      :     1.723701
      dz2     :     0.001133  d :     0.008666
      dxz     :     0.001583
      dyz     :     0.001319
      dx2y2   :     0.001743
      dxy     :     0.002887

  7 F s       :     3.894745  s :     3.894745
      pz      :     1.779976  p :     5.244426
      px      :     1.585514
      py      :     1.878936
      dz2     :     0.001264  d :     0.008636
      dxz     :     0.003137
      dyz     :     0.000610
      dx2y2   :     0.002172
      dxy     :     0.001453

  8 F s       :     3.887683  s :     3.887683
      pz      :     1.842724  p :     5.244274
      px      :     1.667015
      py      :     1.734535
      dz2     :     0.001187  d :     0.008730
      dxz     :     0.001719
      dyz     :     0.001258
      dx2y2   :     0.001611
      dxy     :     0.002955

  9 F s       :     3.893746  s :     3.893746
      pz      :     1.892311  p :     5.245914
      px      :     1.856688
      py      :     1.496916
      dz2     :     0.001236  d :     0.008577
      dxz     :     0.000247
      dyz     :     0.001856
      dx2y2   :     0.002990
      dxy     :     0.002247



                     *******************************
                     * LOEWDIN POPULATION ANALYSIS *
                     *******************************

----------------------
LOEWDIN ATOMIC CHARGES
----------------------
   0 C :    0.117381
   1 O :   -0.086635
   2 C :    0.040575
   3 F :   -0.028350
   4 F :   -0.030172
   5 C :    0.138495
   6 F :   -0.039048
   7 F :   -0.036914
   8 F :   -0.034896
   9 F :   -0.040436

-------------------------------
LOEWDIN REDUCED ORBITAL CHARGES
-------------------------------
  0 C s       :     2.809337  s :     2.809337
      pz      :     0.859222  p :     2.685515
      px      :     0.843472
      py      :     0.982821
      dz2     :     0.097142  d :     0.387768
      dxz     :     0.084925
      dyz     :     0.064243
      dx2y2   :     0.061429
      dxy     :     0.080028

  1 O s       :     3.540491  s :     3.540491
      pz      :     1.593956  p :     4.508770
      px      :     1.505397
      py      :     1.409416
      dz2     :     0.004777  d :     0.037374
      dxz     :     0.004270
      dyz     :     0.006692
      dx2y2   :     0.010843
      dxy     :     0.010792

  2 C s       :     2.875448  s :     2.875448
      pz      :     1.036325  p :     2.816981
      px      :     0.961431
      py      :     0.819225
      dz2     :     0.054738  d :     0.266997
      dxz     :     0.039298
      dyz     :     0.048063
      dx2y2   :     0.065700
      dxy     :     0.059198

  3 F s       :     3.722871  s :     3.722871
      pz      :     1.522396  p :     5.291226
      px      :     1.891187
      py      :     1.877643
      dz2     :     0.008251  d :     0.014252
      dxz     :     0.002112
      dyz     :     0.003569
      dx2y2   :     0.000149
      dxy     :     0.000171

  4 F s       :     3.723224  s :     3.723224
      pz      :     1.871552  p :     5.292637
      px      :     1.566759
      py      :     1.854326
      dz2     :     0.001952  d :     0.014311
      dxz     :     0.003068
      dyz     :     0.000483
      dx2y2   :     0.004787
      dxy     :     0.004021

  5 C s       :     2.849938  s :     2.849938
      pz      :     0.985887  p :     2.618367
      px      :     0.815785
      py      :     0.816695
      dz2     :     0.082909  d :     0.393200
      dxz     :     0.071103
      dyz     :     0.050285
      dx2y2   :     0.095358
      dxy     :     0.093546

  6 F s       :     3.724347  s :     3.724347
      pz      :     1.851018  p :     5.300763
      px      :     1.706384
      py      :     1.743361
      dz2     :     0.001752  d :     0.013937
      dxz     :     0.002592
      dyz     :     0.002195
      dx2y2   :     0.002484
      dxy     :     0.004914

  7 F s       :     3.728526  s :     3.728526
      pz      :     1.786490  p :     5.294649
      px      :     1.628170
      py      :     1.879989
      dz2     :     0.001653  d :     0.013739
      dxz     :     0.005630
      dyz     :     0.000776
      dx2y2   :     0.003724
      dxy     :     0.001956

  8 F s       :     3.726274  s :     3.726274
      pz      :     1.842499  p :     5.294727
      px      :     1.696326
      py      :     1.755902
      dz2     :     0.001748  d :     0.013894
      dxz     :     0.002797
      dyz     :     0.001976
      dx2y2   :     0.002029
      dxy     :     0.005344

  9 F s       :     3.729045  s :     3.729045
      pz      :     1.886282  p :     5.297774
      px      :     1.860379
      py      :     1.551113
      dz2     :     0.002179  d :     0.013617
      dxz     :     0.000329
      dyz     :     0.002580
      dx2y2   :     0.005180
      dxy     :     0.003350



                      *****************************
                      * MAYER POPULATION ANALYSIS *
                      *****************************

  NA   - Mulliken gross atomic population
  ZA   - Total nuclear charge
  QA   - Mulliken gross atomic charge
  VA   - Mayer's total valence
  BVA  - Mayer's bonded valence
  FA   - Mayer's free valence

  ATOM       NA         ZA         QA         VA         BVA        FA
  0 C      5.5714     6.0000     0.4286     4.4040     4.4040    -0.0000
  1 O      8.2348     8.0000    -0.2348     2.0989     2.0989    -0.0000
  2 C      5.8920     6.0000     0.1080     3.9096     3.9096    -0.0000
  3 F      9.1335     9.0000    -0.1335     1.2258     1.2258     0.0000
  4 F      9.1295     9.0000    -0.1295     1.2287     1.2287     0.0000
  5 C      5.4427     6.0000     0.5573     4.4411     4.4411     0.0000
  6 F      9.1595     9.0000    -0.1595     1.2007     1.2007    -0.0000
  7 F      9.1478     9.0000    -0.1478     1.2128     1.2128    -0.0000
  8 F      9.1407     9.0000    -0.1407     1.2271     1.2271    -0.0000
  9 F      9.1482     9.0000    -0.1482     1.2098     1.2098     0.0000

  Mayer bond orders larger than 0.100000
B(  0-C ,  1-O ) :   1.0728 B(  0-C ,  2-C ) :   0.9250 B(  0-C ,  3-F ) :   1.1830 
B(  0-C ,  4-F ) :   1.1888 B(  1-O ,  2-C ) :   0.9249 B(  2-C ,  5-C ) :   0.8832 
B(  2-C ,  6-F ) :   1.1284 B(  5-C ,  7-F ) :   1.1632 B(  5-C ,  8-F ) :   1.1772 
B(  5-C ,  9-F ) :   1.1659 

-------
TIMINGS
-------

Total SCF time: 0 days 0 hours 0 min 7 sec 

Total time                  ....       7.176 sec
Sum of individual times     ....       6.526 sec  ( 90.9%)

SCF preparation             ....       0.183 sec  (  2.5%)
Fock matrix formation       ....       6.145 sec  ( 85.6%)
  Startup                   ....       0.004 sec  (  0.1% of F)
  Split-RI-J                ....       0.563 sec  (  9.2% of F)
  Chain of spheres X        ....       5.034 sec  ( 81.9% of F)
  XC integration            ....       1.043 sec  ( 17.0% of F)
    XC Preparation          ....       0.000 sec  (  0.0% of XC)
    Basis function eval.    ....       0.301 sec  ( 28.9% of XC)
    Density eval.           ....       0.183 sec  ( 17.5% of XC)
    XC-Functional eval.     ....       0.064 sec  (  6.1% of XC)
    XC-Potential eval.      ....       0.203 sec  ( 19.4% of XC)
Diagonalization             ....       0.000 sec  (  0.0%)
Density matrix formation    ....       0.025 sec  (  0.4%)
Total Energy calculation    ....       0.013 sec  (  0.2%)
Population analysis         ....       0.013 sec  (  0.2%)
Orbital Transformation      ....       0.020 sec  (  0.3%)
Orbital Orthonormalization  ....       0.000 sec  (  0.0%)
DIIS solution               ....       0.077 sec  (  1.1%)
SOSCF solution              ....       0.050 sec  (  0.7%)
Finished LeanSCF after   7.2 sec

Maximum memory used throughout the entire LEANSCF-calculation: 11.0 MB


-------------------------------------------------------------------------------
                          DFT DISPERSION CORRECTION                            
                                                                               
                              DFTD3 V3.1  Rev 1                                
                          USING Becke-Johnson damping                          
-------------------------------------------------------------------------------
The B3LYP functional is recognized
Active option DFTDOPT                   ...         4   

molecular C6(AA) [au] = 1011.993724 


            DFT-D V3
 parameters
 s6 scaling factor         :     1.0000 
 a1 scaling factor         :     0.3981 
 s8 scaling factor         :     1.9889 
 a2 scaling factor         :     4.4211 
 ad hoc parameters k1-k3   :    16.0000     1.3333    -4.0000 

 Edisp/kcal,au: -7.481250917519  -0.011922130946 
 E6   /kcal   :  -3.531594756 
 E8   /kcal   :  -3.949656161 
 % E8         :  52.794060845 

-------------------------   ----------------
Dispersion correction           -0.011922131
-------------------------   ----------------


-------------------------   --------------------
FINAL SINGLE POINT ENERGY      -787.654921466813
-------------------------   --------------------



           ************************************************************
           *        Program running with 6 parallel MPI-processes     *
           *              working on a common directory               *
           ************************************************************
------------------------------------------------------------------------------
                         ORCA SCF GRADIENT CALCULATION
------------------------------------------------------------------------------

Nuc. rep. gradient        (SHARK) ... done (  0.0 sec)
HCore & Overlap gradient  (SHARK) ... done (  0.0 sec)
Split-RIJ-J gradient      (SHARK) ... done (  0.3 sec)
done (  4.2 sec)
XC gradient                       ... done (  0.6 sec)
Dispersion correction             ... done (  0.1 sec)

-------------------
DISPERSION GRADIENT
-------------------

   1   C   :   -0.000097927   -0.000138033    0.000323499
   2   O   :    0.000076012   -0.000214899    0.000197290
   3   C   :    0.000075092    0.000012171    0.000038500
   4   F   :   -0.000081843   -0.000036716    0.000261484
   5   F   :   -0.000271011   -0.000151981    0.000181486
   6   C   :    0.000070463    0.000112010   -0.000288591
   7   F   :    0.000241352    0.000162953    0.000144422
   8   F   :    0.000139317    0.000035339   -0.000287849
   9   F   :   -0.000111097   -0.000025274   -0.000330302
  10   F   :   -0.000040358    0.000244430   -0.000239939

Difference to translation invariance:
           :   -0.0000000000    0.0000000000    0.0000000000

Difference to rotation invariance:
           :    0.0000000000    0.0000000000    0.0000000000

Norm of the Dispersion gradient    ...    0.0009941567
RMS gradient                       ...    0.0001815073
MAX gradient                       ...    0.0003303015

------------------
CARTESIAN GRADIENT
------------------

   1   C   :   -0.000210998    0.000007629   -0.000068072
   2   O   :    0.000085587    0.000063261   -0.000028430
   3   C   :   -0.000209193   -0.000197272    0.000048103
   4   F   :    0.000074530    0.000145038   -0.000021754
   5   F   :    0.000238698   -0.000116288   -0.000121700
   6   C   :    0.000087208    0.000053598    0.000353677
   7   F   :    0.000145476    0.000218536    0.000352525
   8   F   :   -0.000235468   -0.000210472   -0.000364781
   9   F   :   -0.000080740   -0.000077087   -0.000161267
  10   F   :    0.000104899    0.000113058    0.000011700

Difference to translation invariance:
           :   -0.0000000000    0.0000000000   -0.0000000000

Difference to rotation invariance:
           :   -0.0000649968    0.0002521120    0.0001285950

Norm of the Cartesian gradient     ...    0.0009395076
RMS gradient                       ...    0.0001715298
MAX gradient                       ...    0.0003647810

-------
TIMINGS
-------

Total SCF gradient time     ....        5.220 sec

Densities                   ....       0.001 sec  (  0.0%)
One electron gradient       ....       0.029 sec  (  0.6%)
RI-J Coulomb gradient       ....       0.287 sec  (  5.5%)
COSX gradient               ....       4.211 sec  ( 80.7%)
XC gradient                 ....       0.637 sec  ( 12.2%)

Maximum memory used throughout the entire SCFGRAD-calculation: 28.1 MB


           ************************************************************
           *        Program running with 6 parallel MPI-processes     *
           *              working on a common directory               *
           ************************************************************

------------------------------------------------------------------------------
                              ORCA PROPERTY CALCULATIONS
------------------------------------------------------------------------------

GBWName                                 ... orca.gbw
Number of atoms                         ...     10
Number of basis functions               ...    140
Max core memory                         ...   4096 MB

Electric properties:
Dipole moment                           ... YES
Quadrupole moment                       ...  NO
Static polarizability (Dipole/Dipole)   ...  NO
Static polarizability (Dipole/Quad.)    ...  NO
Static polarizability (Quad./Quad.)     ...  NO
Static polarizability (Velocity)        ...  NO
Static hyperpolarizability              ...  NO

Atomic electric properties:
Dipole moment                           ...  NO
Quadrupole moment                       ...  NO
Static polarizability                   ...  NO

Choice of electric origin               ... Center of mass
Position of electric origin             ...    -0.979186    -0.584576   -11.239583

General magnetic properties:
Magnetizability                         ...  NO

EPR properties:
g-Tensor (aka g-matrix)                 ...  NO
Zero-Field splitting spin-orbit         ...  NO
Zero-field splitting spin-spin          ...  NO
Hyperfine couplings                     ...  NO (   0 nuclei)
Quadrupole couplings                    ...  NO (   0 nuclei)
Contact density                         ...  NO (   0 nuclei)

NMR properties:
Chemical shifts                         ...  NO (   0 nuclei)
Spin-rotation constants                 ...  NO (   0 nuclei)
Spin-spin couplings                     ...  NO (   0 nuclei,    0 pairs)

Choice of magnetic origin               ... GIAO
Position of magnetic origin             ...     0.000000     0.000000     0.000000

Properties with geometric perturbations:
SCF Hessian                             ...  NO
IR spectrum                             ...  NO
VCD spectrum                            ...  NO
X-ray spectroscopy properties:
SCF XES/XAS/RIXS spectra                ...  NO

SCF SOC stabilization energy            ...  NO
Diagonal Born-Oppenheimer correction    ...  NO

-------------
DIPOLE MOMENT
-------------

Method             : SCF
Type of density    : Electron Density
Multiplicity       :   1
Irrep              :   0
Energy             :  -787.6429993358672164 Eh
Basis              : AO
                                X                 Y                 Z
Electronic contribution:     -0.631609868       1.172487879      -0.692551874
Nuclear contribution   :      0.481804761      -1.021974011       0.726161630
                        -----------------------------------------
Total Dipole Moment    :     -0.149805107       0.150513867       0.033609756
                        -----------------------------------------
Magnitude (a.u.)       :      0.215001419
Magnitude (Debye)      :      0.546490177



--------------------
Rotational spectrum 
--------------------
 
Rotational constants in cm-1:             0.073566             0.036694             0.031154 
Rotational constants in MHz :          2205.465340          1100.043523           933.974799 

Dipole components along the rotational axes: 
x,y,z [a.u.] :     0.024218    -0.042820     0.209298 
x,y,z [Debye]:     0.061557    -0.108839     0.531993 

 

Dipole moment calculation done in   0.0 sec 

Maximum memory used throughout the entire PROP-calculation: 6.3 MB

--------------------------------
SUGGESTED CITATIONS FOR THIS RUN
--------------------------------

Below you find a list of papers that are relevant to this ORCA run
We neither can nor want to force you to cite these papers, but we appreciate if you do
You receive ORCA, which is the product of decades of hard work by many enthusiastic individuals, for free
The only thing we kindly ask in return is that you cite our papers,
We deeply appreciate it, if you show your appreciation for ORCA by not just citing the generic ORCA reference.

Please note that relegating all ORCA citations to the supporting information does *not* help us.
SI sections are not indexed - citations you put there will not count into any citation statistics
But we need these citations in order to attract the funding resources that allow us to do what we are doing

Therefore, if you are a happy ORCA user, please consider citing a few of the papers listed below in the main body of your paper

In addition to the list printed below, the program has created the file orca.bibtex that contains the list in bibtex format
You can import this file easily into all common literature databanks and citation aid programs


List of essential papers. We consider these as the minimum necessary citations

  1. Neese, F.
     Software update: the ORCA program system, version 6.0
     WIRES Comput. Molec. Sci. 2025 15(1), e70019
     doi.org/10.1002/wcms.7019

List of papers to cite with high priority. The work reported in these papers was absolutely
necessary for this run to complete.
Our perspective: the developers of density functionals and basis sets usually get cited in chemistry papers
Good! But without the algorithms to do something with them, the functionals or basis sets would not do anything.
Hence, in our opinion, the algorithm design and method developments papers are equally worthy of getting cited

  1. Neese, F.
     An improvement of the resolution of the identity approximation for the formation of the Coulomb matrix
     J. Comp. Chem. 2003 24(14), 1740-1747
     doi.org/10.1002/jcc.10318
  2. Neese, F.; Wennmohs, F.; Hansen, A.; Becker, U.
     Efficient, approximate and parallel Hartree-Fock and hybrid DFT calculations. A 'chain-of-spheres' algorithm for the Hartree-Fock exchange
     Chem. Phys. 2009 356(1-3), 98-109
     doi.org/10.1016/j.chemphys.2008.10.036
  3. Grimme, S.; Antony, J.; Ehrlich, S.; Krieg, H.
     A consistent and accurate ab initio parametrization of density functional dispersion correction (DFT-D) for the 94 elements H-Pu
     J. Chem. Phys. 2010 132 , 154104
     doi.org/10.1063/1.3382344
  4. Grimme, S.; Ehrlich, S.; Goerigk, L.
     Effect of the damping function in dispersion corrected density functional theory
     J. Comput. Chem. 2011 32(7), 1456-1465
     doi.org/10.1002/jcc.21759
  5. Helmich-Paris, B.; de Souza, B.; Neese, F.; Izsák, R.
     An improved chain of spheres for exchange algorithm
     J. Chem. Phys. 2021 155(10), 104109
     doi.org/10.1063/5.0058766
  6. Neese, F.
     The SHARK Integral Generation and Digestion System
     J. Comp. Chem. 2022 44(3), 381
     doi.org/10.1002/jcc.26942

List of suggested additional citations. These are papers that are important in the 'surrounding' of 
of this run, or papers that preceded the highly important papers. If you like your results we are grateful for a citation.

  1. Izsak, R.; Neese, F.
     An overlap fitted chain of spheres exchange method
     J. Chem. Phys. 2011 135 , 144105
     doi.org/10.1063/1.3646921
  2. Izsak, R.; Hansen, A.; Neese, F.
     The resolution of identity and chain of spheres approximations for the LPNO-CCSD singles Fock term
     Molec. Phys. 2012 110 , 2413-2417
     doi.org/10.1080/00268976.2012.687466
  3. Neese, F.
     The ORCA program system
     WIRES Comput. Molec. Sci. 2012 2(1), 73-78
     doi.org/10.1002/wcms.81
  4. Izsak, R.; Neese, F.; Klopper, W.
     Robust fitting techniques in the chain of spheres approximation to the Fock exchange: The role of the complementary space
     J. Chem. Phys. 2013 139 , 
     doi.org/10.1063/1.4819264
  5. Neese, F.
     Software update: the ORCA program system, version 4.0
     WIRES Comput. Molec. Sci. 2018 8(1), 1-6
     doi.org/10.1002/wcms.1327
  6. Neese, F.; Wennmohs, F.; Becker, U.; Riplinger, C.
     The ORCA quantum chemistry program package
     J. Chem. Phys. 2020 152(22), 224108
     doi.org/10.1063/5.0004608
  7. Neese, F.
     Software update: The ORCA program system—Version 5.0
     WIRES Comput. Molec. Sci. 2022 12(1), e1606
     doi.org/10.1002/wcms.1606

List of optional additional citations

  1. Neese, F.
     Approximate second-order SCF convergence for spin unrestricted wavefunctions
     Chem. Phys. Lett. 2000 325(1-3), 93-98
     doi.org/10.1016/s0009-2614(00)00662-x

Timings for individual modules:

Sum of individual times          ...       15.687 sec (=   0.261 min)
Startup calculation              ...        1.388 sec (=   0.023 min)   8.9 %
SCF iterations                   ...        8.185 sec (=   0.136 min)  52.2 %
Property calculations            ...        0.426 sec (=   0.007 min)   2.7 %
SCF Gradient evaluation          ...        5.687 sec (=   0.095 min)  36.3 %
                             ****ORCA TERMINATED NORMALLY****
TOTAL RUN TIME: 0 days 0 hours 0 minutes 16 seconds 216 msec
