
                                 *****************
                                 * O   R   C   A *
                                 *****************

                                            #,                                       
                                            ###                                      
                                            ####                                     
                                            #####                                    
                                            ######                                   
                                           ########,                                 
                                     ,,################,,,,,                         
                               ,,#################################,,                 
                          ,,##########################################,,             
                       ,#########################################, ''#####,          
                    ,#############################################,,   '####,        
                  ,##################################################,,,,####,       
                ,###########''''           ''''###############################       
              ,#####''   ,,,,##########,,,,          '''####'''          '####       
            ,##' ,,,,###########################,,,                        '##       
           ' ,,###''''                  '''############,,,                           
         ,,##''                                '''############,,,,        ,,,,,,###''
      ,#''                                            '''#######################'''  
     '                                                          ''''####''''         
             ,#######,   #######,   ,#######,      ##                                
            ,#'     '#,  ##    ##  ,#'     '#,    #''#        ,####,    ,#,          
            ##       ##  ##   ,#'  ##            #'  '#       #'       ,# #          
            ##       ##  #######   ##           ,######,      #####,      #          
            '#,     ,#'  ##    ##  '#,     ,#' ,#      #,     #,   #      #          
             '#######'   ##     ##  '#######'  #'      '#     '####' #    #          



                #########################################################
                #                        -***-                          #
                #          Department of theory and spectroscopy        #
                #                                                       #
                #                      Frank Neese                      #
                #                                                       #
                #     Directorship, Architecture, Infrastructure        #
                #                    SHARK, DRIVERS                     #
                #        Core code/Algorithms in most modules           #
                #                                                       #
                #        Max Planck Institute fuer Kohlenforschung      #
                #                Kaiser Wilhelm Platz 1                 #
                #                 D-45470 Muelheim/Ruhr                 #
                #                      Germany                          #
                #                                                       #
                #                  All rights reserved                  #
                #                        -***-                          #
                #########################################################


                         Program Version 6.1.0  -  RELEASE   -
                                (GIT: $679e74b$)
                          ($2025-06-10 18:02:51 +0200$)


 With contributions from (in alphabetic order):
[Max-Planck-Institut fuer Kohlenforschung]                               
  Daniel Aravena         : Magnetic Suceptibility                        
  Michael Atanasov       : Ab Initio Ligand Field Theory (pilot matlab implementation)
  Alexander A. Auer      : GIAO ZORA, VPT2 properties, NMR spectrum      
  Ute Becker             : All parallelization in ORCA, NUMFREQ, NUMCALC 
  Giovanni Bistoni       : ED, misc. LED, open-shell LED, HFLD           
  Dmytro Bykov           : pre 5.0 version of the SCF Hessian            
  Marcos Casanova-Páez   : Triplet and SCS-CIS(D). UHF-(DLPNO)-IP/EA/STEOM-CCSD. UHF-CVS-IP/STEOM-CCSD   
  Vijay G. Chilkuri      : MRCI spin determinant printing, contributions to CSF-ICE 
  Pauline Colinet        : FMM embedding                                 
  Dipayan Datta          : RHF DLPNO-CCSD density                        
  Achintya Kumar Dutta   : EOM-CC, STEOM-CC                              
  Nicolas Foglia         : Exact transition moments, OPA infrastructure, MCD improvements    
  Dmitry Ganyushin       : Spin-Orbit,Spin-Spin,Magnetic field MRCI      
  Miquel Garcia-Rates    : C-PCM and meta-GGA Hessian, CCSD/C-PCM, Gaussian charge scheme 
  Tiago L. C. Gouveia    : GS-ROHF, GS-ROCIS                             
  Yang Guo               : DLPNO-NEVPT2, F12-NEVPT2, CIM, IAO-localization        
  Andreas Hansen         : Spin unrestricted coupled pair/coupled cluster methods 
  Ingolf Harden          : AUTO-CI MPn and infrastructure                
  Benjamin Helmich-Paris : MC-RPA, TRAH-(SCF,CASSCF), AVAS, COSX integrals, SCF dyn. polar., MC-PDFT, srDFT 
  Lee Huntington         : MR-EOM, pCC                                   
  Robert Izsak           : Overlap fitted RIJCOSX, COSX-SCS-MP3, EOM     
  Riya Kayal             : Wick's Theorem for AUTO-CI, AUTO-CI UHF-CCSDT 
  Emily Kempfer          : AUTO-CI RHF CISDT and CCSDT, approximate NEVPT4
  Christian Kollmar      : KDIIS, OOCD, Brueckner-CCSD(T), CCSD density, CASPT2, CASPT2-K, improved NEVPT2 
  Axel Koslowski         : Symmetry handling                             
  Simone Kossmann        : meta-GGA functionals, TD-DFT gradient, OOMP2, (MP2 Hessian; deprecated post 5.0) 
  Lucas Lang             : DCDCAS, Hyperfine gauge corrections, ICE-SOC+SSC
  Marvin Lechner         : AUTO-CI (C++ implementation), FIC-MRCC        
  Spencer Leger          : CASSCF response                               
  Dagmar Lenk            : GEPOL surface, SMD, ORCA-2-JSON               
  Dimitrios Liakos       : Extrapolation schemes; Compound Job, Property file
  Dimitrios Manganas     : Further ROCIS development; embedding schemes. LFT, Crystal Embedding 
  Dimitrios Pantazis     : SARC Basis sets                               
  Anastasios Papadopoulos: AUTO-CI, single reference methods and gradients 
  Taras Petrenko         : pre 6.0 DFT Hessian and TD-DFT gradient,  ECA, NRVS 
  Petra Pikulova         : Analytic Raman intensities                    
  Peter Pinski           : DLPNO-MP2, DLPNO-MP2 Gradient                 
  Shashank Vittal Rao    : ES-AILFT, MagRelax                            
  Christoph Reimann      : Effective Core Potentials                     
  Marius Retegan         : Local ZFS, SOC                                
  Christoph Riplinger    : Optimizer, TS searches, QM/MM, DLPNO-CCSD(T), (RO)-DLPNO pert. Triples 
  Michael Roemelt        : Original ROCIS implementation, recursive CI coupling coefficients
  Masaaki Saitow         : Open-shell DLPNO-CCSD energy and density      
  Barbara Sandhoefer     : DKH picture change effects                    
  Yorick L. A. Schmerwitz: GMF and freeze-and-release deltaSCF, NEB S-IDPP initial path                    
  Kantharuban Sivalingam : CASSCF convergence/infrastructure, NEVPT2, NEVPT3, NEVPT4(SD), FIC-MRCI and CEPA variants
  Bernardo de Souza      : ESD, SOC TD-DFT                               
  Georgi L. Stoychev     : AutoAux, RI-MP2 NMR, DLPNO-MP2 response, X2C  
  Van Anh Tran           : RI-MP2 g-tensors                              
  Willem Van den Heuvel  : Paramagnetic NMR                              
  Zikuan Wang            : NOTCH, Electric field optimization            
  Frank Wennmohs         : Technical directorship and infrastructure     
  Hang Xu                : AUTO-CI-Response properties                   
                                                                         
[FACCTs GmbH]                                                            
  Markus Bursch, Nicolas Foglia, Miquel Garcia-Rates, Ingolf Harden, Hagen Neugebauer, Anastasios Papadopoulos, 
  Christoph Riplinger, Bernardo de Souza, Georgi L. Stoychev                                                    
                                                                 
  APM, various basis sets, CI-OPT, improved COSX, DLPNO-Multilevel,           
  DOCKER, DRACO, updates on ESD, Fragmentator, GOAT, IRC, LR-CPCM, L-BFGS, MBIS, meta-GGA TD-DFT gradient, ML-optimized integration grids, 
  MM, NACMEs, nearIR, NEB, NEB-TS, NL-DFT gradient (VV10), 2- and 3-layer-ONIOM, interface openCOSMO-RS, QMMM,   
  Crystal-QMMM, RESP, rigid body optimization, SF, symmetry and pop. for TD-DFT, various functionals, SOLVATOR                                   
                                                                         
[Other institutions]                                                     
  V. Asgeirsson          : NEB                                           
  Christoph Bannwarth    : sTDA-DFT, sTD-DFT, PBEh-3c, B97-3c, D3        
  Giovanni Bistoni       : ETS/NOCV, ADLD/ADEX, COVALED                  
  Martin Brehm           : Molecular dynamics                            
  Ronald Cardenas        : ETS/NOCV                                      
  Martina Colucci        : COVALED                                       
  Sebastian Ehlert       : rSCAN, r2SCAN, r2SCAN-3c, D4, dhf basis sets  
  Marvin Friede          : D4 for Fr, Ra, Ac-Lr                          
  Lars Goerigk           : TD-DFT with DH, B97 family of functionals     
  Stefan Grimme          : VdW corrections, initial TS optimization, DFT functionals, gCP, sTDA/sTD-DF 
  Waldemar Hujo          : DFT-NL                                        
  H. Jonsson             : NEB                                           
  Holger Kruse           : gCP                                           
  Marcel Mueller         : wB97X-3c, vDZP basis set                      
  Hagen Neugebauer       : wr2SCAN, Native XTB                           
  Gianluca Regni         : ADLD/ADEX                                     
  Tobias Risthaus        : pre 6.0 range-separated hybrid DFT and stability analysis
  Lukas Wittmann         : regularized MP2, r2SCAN double-hybrids, wr2SCAN        
                                                                         
We gratefully acknowledge several colleagues who have allowed us to      
interface, adapt or use parts of their codes:                            
  Ed Valeev, F. Pavosevic, A. Kumar             : LibInt (2-el integral package), F12 methods 
  Garnet Chan, S. Sharma, J. Yang, R. Olivares  : DMRG                   
  Ulf Ekstrom                                   : XCFun DFT Library      
  Mihaly Kallay                                 : mrcc  (arbitrary order and MRCC methods)
  Frank Weinhold                                : gennbo (NPA and NBO analysis)           
  Simon Mueller                                 : openCOSMO-RS                            
  Christopher J. Cramer and Donald G. Truhlar   : smd solvation model                     
  S Lehtola, MJT Oliveira, MAL Marques          : LibXC Library                           
  Liviu Ungur et al                             : ANISO software                          


 Your calculation uses the libint2 library for the computation of 2-el integrals
 For citations please refer to: http://libint.valeyev.net

 Your ORCA version has been built with support for libXC version: 7.0.0
 For citations please refer to: https://libxc.gitlab.io

 This ORCA versions uses:
   CBLAS   interface :  Fast vector & matrix operations
   LAPACKE interface :  Fast linear algebra routines
   SCALAPACK package :  Parallel linear algebra routines
   Shared memory     :  Shared parallel matrices
   BLAS/LAPACK       :  OpenBLAS 0.3.29  USE64BITINT DYNAMIC_ARCH NO_AFFINITY Zen SINGLE_THREADED
        Core in use  :  Zen
   Copyright (c) 2011-2014, The OpenBLAS Project


  ***********************************
  * Starting time: Wed Sep 10 13:34:26 2025
  * Host name:     wyk-Server
  * Process ID:    2282843
  * Working dir.:  /home/wyk/Documents/code/openQDC/MGMR/singlepointcalc/37/sp
  ***********************************

Your calculation utilizes the atom-pairwise dispersion correction
with the Becke-Johnson damping scheme (D3BJ)


Warning: RI is on but no J-basis has been assigned. Assigning Def2/J (nothing to worry about!)
================================================================================

----- Orbital basis set information -----
Your calculation utilizes the basis: def2-SVP
   F. Weigend and R. Ahlrichs, Phys. Chem. Chem. Phys. 7, 3297 (2005).

----- AuxJ basis set information -----
Your calculation utilizes the auxiliary basis: def2/J
   H-Rn: F. Weigend, Phys. Chem. Chem. Phys. 8, 1057 (2006).
   Fr-Lr: K. Eichkorn, F. Weigend, O. Treutler, R. Ahlrichs; Theor. Chem. Acc. 97, 119 (1997).

================================================================================
                                        WARNINGS
                       Please study these warnings very carefully!
================================================================================


================================================================================
                                       INPUT FILE
================================================================================
NAME = orca.inp
|  1> ! B3LYP def2-SVP d3 EnGrad 
|  2> %pal nprocs 6 end 
|  3> *xyz 0 1 
|  4> C   1.62723195777086 0.4771972402335 0.17397916426603
|  5> C   0.2077574559859 0.95361724704969 -0.02663244505998
|  6> H   2.30312056886685 1.33080957715509 0.33935518281948
|  7> H   2.02675948055907 -0.08337414560623 -0.69474813883363
|  8> H   1.71753858302181 -0.17884995605449 1.05609909600868
|  9> C   -0.93023415957471 0.09443909297854 -0.01030354990732
| 10> O   -1.97918644935823 0.76600173899161 0.30844560606038
| 11> C   -1.00039572441972 -1.38279714025264 -0.2077636851728
| 12> H   -0.3766512970859 -1.71271259838162 -1.05218318587222
| 13> H   -2.04338086022655 -1.70309475181054 -0.33755640892649
| 14> H   -0.60502219395461 -1.87330017866588 0.69926823272399
| 15> H   -1.02536847068757 1.59831181395895 0.56729024262402
| 16> H   0.07783110910282 1.71375206040404 -0.81525011073013
| 17> *
| 18> 
| 19>                          ****END OF INPUT****
================================================================================

                     *******************************
                     * Energy+Gradient Calculation *
                     *******************************

---------------------------------
CARTESIAN COORDINATES (ANGSTROEM)
---------------------------------
  C      1.627232    0.477197    0.173979
  C      0.207757    0.953617   -0.026632
  H      2.303121    1.330810    0.339355
  H      2.026759   -0.083374   -0.694748
  H      1.717539   -0.178850    1.056099
  C     -0.930234    0.094439   -0.010304
  O     -1.979186    0.766002    0.308446
  C     -1.000396   -1.382797   -0.207764
  H     -0.376651   -1.712713   -1.052183
  H     -2.043381   -1.703095   -0.337556
  H     -0.605022   -1.873300    0.699268
  H     -1.025368    1.598312    0.567290
  H      0.077831    1.713752   -0.815250

----------------------------
CARTESIAN COORDINATES (A.U.)
----------------------------
  NO LB      ZA    FRAG     MASS         X           Y           Z
   0 C     6.0000    0    12.011    3.075023    0.901772    0.328773
   1 C     6.0000    0    12.011    0.392605    1.802075   -0.050328
   2 H     1.0000    0     1.008    4.352267    2.514866    0.641288
   3 H     1.0000    0     1.008    3.830020   -0.157554   -1.312884
   4 H     1.0000    0     1.008    3.245678   -0.337977    1.995738
   5 C     6.0000    0    12.011   -1.757888    0.178464   -0.019471
   6 O     8.0000    0    15.999   -3.740120    1.447534    0.582878
   7 C     6.0000    0    12.011   -1.890474   -2.613108   -0.392616
   8 H     1.0000    0     1.008   -0.711768   -3.236558   -1.988338
   9 H     1.0000    0     1.008   -3.861430   -3.218383   -0.637889
  10 H     1.0000    0     1.008   -1.143326   -3.540024    1.321425
  11 H     1.0000    0     1.008   -1.937666    3.020372    1.072023
  12 H     1.0000    0     1.008    0.147079    3.238522   -1.540599

--------------------------------
INTERNAL COORDINATES (ANGSTROEM)
--------------------------------
 C      0   0   0     0.000000000000     0.00000000     0.00000000
 C      1   0   0     1.510671672439     0.00000000     0.00000000
 H      1   2   0     1.101285005739   110.62034965     0.00000000
 H      1   2   3     1.108399588253   113.21051615   240.21608357
 H      1   2   3     1.103036166360   111.75874279   118.98471048
 C      2   1   3     1.426000929290   123.93972557   192.37465116
 O      6   2   1     1.285650931704   109.82957130   155.30391007
 C      6   2   1     1.492025482011   129.23836541   339.95747877
 H      8   6   2     1.100429740285   111.82262601   315.81803426
 H      8   6   2     1.098751429862   110.41956790   191.56322151
 H      8   6   2     1.104364233108   108.31349280    73.61242300
 H      7   6   2     1.292094943572    77.51735041   349.00066326
 H      2   1   3     1.102997557882   115.02206417    53.58386243

---------------------------
INTERNAL COORDINATES (A.U.)
---------------------------
 C      0   0   0     0.000000000000     0.00000000     0.00000000
 C      1   0   0     2.854755739182     0.00000000     0.00000000
 H      1   2   0     2.081127056242   110.62034965     0.00000000
 H      1   2   3     2.094571668748   113.21051615   240.21608357
 H      1   2   3     2.084436270232   111.75874279   118.98471048
 C      2   1   3     2.694751223076   123.93972557   192.37465116
 O      6   2   1     2.429528164742   109.82957130   155.30391007
 C      6   2   1     2.819519545834   129.23836541   339.95747877
 H      8   6   2     2.079510838761   111.82262601   315.81803426
 H      8   6   2     2.076339291693   110.41956790   191.56322151
 H      8   6   2     2.086945952672   108.31349280    73.61242300
 H      7   6   2     2.441705582376    77.51735041   349.00066326
 H      2   1   3     2.084363310782   115.02206417    53.58386243

---------------------
BASIS SET INFORMATION
---------------------
There are 3 groups of distinct atoms

 Group   1 Type C   : 7s4p1d contracted to 3s2p1d pattern {511/31/1}
 Group   2 Type H   : 4s1p contracted to 2s1p pattern {31/1}
 Group   3 Type O   : 7s4p1d contracted to 3s2p1d pattern {511/31/1}

Atom   0C    basis set group =>   1
Atom   1C    basis set group =>   1
Atom   2H    basis set group =>   2
Atom   3H    basis set group =>   2
Atom   4H    basis set group =>   2
Atom   5C    basis set group =>   1
Atom   6O    basis set group =>   3
Atom   7C    basis set group =>   1
Atom   8H    basis set group =>   2
Atom   9H    basis set group =>   2
Atom  10H    basis set group =>   2
Atom  11H    basis set group =>   2
Atom  12H    basis set group =>   2
---------------------------------
AUXILIARY/J BASIS SET INFORMATION
---------------------------------
There are 3 groups of distinct atoms

 Group   1 Type C   : 12s5p4d2f1g contracted to 6s4p3d1f1g pattern {711111/2111/211/2/1}
 Group   2 Type H   : 5s2p1d contracted to 3s1p1d pattern {311/2/1}
 Group   3 Type O   : 12s5p4d2f1g contracted to 6s4p3d1f1g pattern {711111/2111/211/2/1}

Atom   0C    basis set group =>   1
Atom   1C    basis set group =>   1
Atom   2H    basis set group =>   2
Atom   3H    basis set group =>   2
Atom   4H    basis set group =>   2
Atom   5C    basis set group =>   1
Atom   6O    basis set group =>   3
Atom   7C    basis set group =>   1
Atom   8H    basis set group =>   2
Atom   9H    basis set group =>   2
Atom  10H    basis set group =>   2
Atom  11H    basis set group =>   2
Atom  12H    basis set group =>   2


           ************************************************************
           *        Program running with 6 parallel MPI-processes     *
           *              working on a common directory               *
           ************************************************************
------------------------------------------------------------------------------
                             ORCA STARTUP CALCULATIONS
                           -- RI-GTO INTEGRALS CHOSEN --
------------------------------------------------------------------------------
------------------------------------------------------------------------------
                   ___                                                        
                  /   \      - P O W E R E D   B Y -                         
                 /     \                                                     
                 |  |  |   _    _      __       _____    __    __             
                 |  |  |  | |  | |    /  \     |  _  \  |  |  /  |          
                  \  \/   | |  | |   /    \    | | | |  |  | /  /          
                 / \  \   | |__| |  /  /\  \   | |_| |  |  |/  /          
                |  |  |   |  __  | /  /__\  \  |    /   |      \           
                |  |  |   | |  | | |   __   |  |    \   |  |\   \          
                \     /   | |  | | |  |  |  |  | |\  \  |  | \   \       
                 \___/    |_|  |_| |__|  |__|  |_| \__\ |__|  \__/        
                                                                              
                      - O R C A' S   B I G   F R I E N D -                    
                                      &                                       
                       - I N T E G R A L  F E E D E R -                       
                                                                              
 v1 FN, 2020, v2 2021, v3 2022-2024                                           
------------------------------------------------------------------------------


----------------------
SHARK INTEGRAL PACKAGE
----------------------

Number of atoms                             ...     13
Number of basis functions                   ...    110
Number of shells                            ...     54
Maximum angular momentum                    ...      2
Integral batch strategy                     ... SHARK/LIBINT Hybrid
RI-J (if used) integral strategy            ... SPLIT-RIJ (Revised 2003 algorithm where possible)
Printlevel                                  ...      1
Contraction scheme used                     ... SEGMENTED contraction
Prescreening option                         ... SCHWARTZ
   Thresh                                   ... 2.500e-11
   Tcut                                     ... 2.500e-12
   Tpresel                                  ... 2.500e-12 
Coulomb Range Separation                    ... NOT USED
Exchange Range Separation                   ... NOT USED
Multipole approximations                    ... NOT USED
Finite Nucleus Model                        ... NOT USED
CABS basis                                  ... NOT available
Auxiliary Coulomb fitting basis             ... AVAILABLE
   # of basis functions in Aux-J            ...    333
   # of shells in Aux-J                     ...    115
   Maximum angular momentum in Aux-J        ...      4
Auxiliary J/K fitting basis                 ... NOT available
Auxiliary Correlation fitting basis         ... NOT available
Auxiliary 'external' fitting basis          ... NOT available

Checking pre-screening integrals            ... done (  0.0 sec) Dimension = 54
   => SHARK Basis and OBASIS are compatible. Storing Pre-screening
Shell pair information
Shell pair cut-off parameter TPreSel        ...   2.5e-12
Total number of shell pairs                 ...      1485
Shell pairs after pre-screening             ...      1461
Total number of primitive shell pairs       ...      5139
Primitive shell pairs kept                  ...      4018
          la=0 lb=0:    485 shell pairs
          la=1 lb=0:    548 shell pairs
          la=1 lb=1:    170 shell pairs
          la=2 lb=0:    153 shell pairs
          la=2 lb=1:     90 shell pairs
          la=2 lb=2:     15 shell pairs

Checking whether 4 symmetric matrices of dimension 110 fit in memory
:Max Core in MB      =   4096.00
 MB in use           =      5.16
 MB left             =   4090.84
 MB needed           =      0.19
 Data fit in memory  = YES
Calculating RI/J V-Matrix + Cholesky decomp.... done (  0.0 sec)
Calculating Nuclear repulsion               ... done (  0.0 sec) ENN=    176.111051306018 Eh

Diagonalization of the overlap matrix:
Smallest eigenvalue                        ... 2.199e-03
Time for diagonalization                   ...    0.002 sec
Threshold for overlap eigenvalues          ... 1.000e-07
Number of eigenvalues below threshold      ... 0
Time for construction of square roots      ...    0.001 sec
Total time needed                          ...    0.004 sec

-------------------
DFT GRID GENERATION
-------------------

General Integration Accuracy     IntAcc      ... 4.388
Radial Grid Type                 RadialGrid  ... OptM3 with GC (2021)
Angular Grid (max. ang.)         AngularGrid ... 4 (Lebedev-302)
Angular grid pruning method      GridPruning ... 4 (adaptive)
Weight generation scheme         WeightScheme... mBecke (2022)
Basis function cutoff            BFCut       ... 1.0000e-11
Integration weight cutoff        WCut        ... 1.0000e-14
Partially contracted basis set               ... off
Rotationally invariant grid construction     ... off
Angular grids for H and He will be reduced by one unit

Total number of grid points                  ...    56119
Total number of batches                      ...      883
Average number of points per batch           ...       63
Average number of grid points per atom       ...     4317

--------------------
COSX GRID GENERATION
--------------------

GRIDX 1
-------
General Integration Accuracy     IntAcc      ... 3.816
Radial Grid Type                 RadialGrid  ... OptM3 with GC (2021)
Angular Grid (max. ang.)         AngularGrid ... 1 (Lebedev-50)
Angular grid pruning method      GridPruning ... 4 (adaptive)
Weight generation scheme         WeightScheme... mBecke (2022)
Basis function cutoff            BFCut       ... 1.0000e-11
Integration weight cutoff        WCut        ... 1.0000e-14
Partially contracted basis set               ... on
Rotationally invariant grid construction     ... off
Angular grids for H and He will be reduced by one unit

Total number of grid points                  ...     7223
Total number of batches                      ...       65
Average number of points per batch           ...      111
Average number of grid points per atom       ...      556
UseSFitting                                  ... on

GRIDX 2
-------
General Integration Accuracy     IntAcc      ... 4.020
Radial Grid Type                 RadialGrid  ... OptM3 with GC (2021)
Angular Grid (max. ang.)         AngularGrid ... 2 (Lebedev-110)
Angular grid pruning method      GridPruning ... 4 (adaptive)
Weight generation scheme         WeightScheme... mBecke (2022)
Basis function cutoff            BFCut       ... 1.0000e-11
Integration weight cutoff        WCut        ... 1.0000e-14
Partially contracted basis set               ... on
Rotationally invariant grid construction     ... off
Angular grids for H and He will be reduced by one unit

Total number of grid points                  ...    15264
Total number of batches                      ...      126
Average number of points per batch           ...      121
Average number of grid points per atom       ...     1174
UseSFitting                                  ... on

GRIDX 3
-------
General Integration Accuracy     IntAcc      ... 4.338
Radial Grid Type                 RadialGrid  ... OptM3 with GC (2021)
Angular Grid (max. ang.)         AngularGrid ... 3 (Lebedev-194)
Angular grid pruning method      GridPruning ... 4 (adaptive)
Weight generation scheme         WeightScheme... mBecke (2022)
Basis function cutoff            BFCut       ... 1.0000e-11
Integration weight cutoff        WCut        ... 1.0000e-14
Partially contracted basis set               ... on
Rotationally invariant grid construction     ... off
Angular grids for H and He will be reduced by one unit

Total number of grid points                  ...    33475
Total number of batches                      ...      269
Average number of points per batch           ...      124
Average number of grid points per atom       ...     2575
UseSFitting                                  ... on
Grids setup in   0.6 sec
Initializing property integral containers    ... done (  0.0 sec)

SHARK setup successfully completed in   0.7 seconds

Maximum memory used throughout the entire STARTUP-calculation: 16.1 MB


           ************************************************************
           *        Program running with 6 parallel MPI-processes     *
           *              working on a common directory               *
           ************************************************************
-------------------------------------------------------------------------------
                                 ORCA GUESS
                   Start orbitals & Density for SCF / CASSCF
-------------------------------------------------------------------------------

------------
SCF SETTINGS
------------
Hamiltonian:
 Density Functional     Method          .... DFT(GTOs)
 Exchange Functional    Exchange        .... B88
   X-Alpha parameter    XAlpha          ....  0.666667
   Becke's b parameter  XBeta           ....  0.004200
 Correlation Functional Correlation     .... LYP
 LDA part of GGA corr.  LDAOpt          .... VWN-5
 Gradients option       PostSCFGGA      .... off
 Hybrid DFT is turned on
   Fraction HF Exchange ScalHFX         ....  0.200000
   Scaling of DF-GGA-X  ScalDFX         ....  0.720000
   Scaling of DF-GGA-C  ScalDFC         ....  0.810000
   Scaling of DF-LDA-C  ScalLDAC        ....  1.000000
   Perturbative correction              ....  0.000000
   NL short-range parameter             ....  4.800000
 RI-approximation to the Coulomb term is turned on
   Number of AuxJ basis functions       .... 333
   RIJ-COSX (HFX calculated with COS-X)).... on


General Settings:
 Integral files         IntName         .... orca
 Hartree-Fock type      HFTyp           .... RHF
 Total Charge           Charge          ....    0
 Multiplicity           Mult            ....    1
 Number of Electrons    NEL             ....   40
 Basis Dimension        Dim             ....  110
 Nuclear Repulsion      ENuc            ....    176.1110513060 Eh

Convergence Acceleration:
 AO-DIIS                CNVDIIS         .... on
   Start iteration      DIISMaxIt       ....    12
   Startup error        DIISStart       ....  0.200000
   # of expansion vecs  DIISMaxEq       ....     5
   Bias factor          DIISBfac        ....   1.050
   Max. coefficient     DIISMaxC        ....  10.000
 MO-DIIS                CNVKDIIS        .... off
 Trust-Rad. Augm. Hess. CNVTRAH         .... auto
   Auto Start mean grad. ratio tolernc. ....  1.125000
   Auto Start start iteration           ....    50
   Auto Start num. interpolation iter.  ....    10
   Max. Number of Micro iterations      ....    24
   Max. Number of Macro iterations      .... Maxiter - #DIIS iter
   Number of Davidson start vectors     ....     2
   Converg. threshold    (grad. norm)   ....   1.000e-05
   Grad. Scal. Fac. for Micro threshold ....   0.100
   Minimum threshold for Micro iter.    ....   1.000e-02
   NR start threshold (gradient norm)   ....   1.000e-04
   Initial trust radius                 ....   0.400
   Minimum AH scaling param. (alpha)    ....   1.000
   Maximum AH scaling param. (alpha)    .... 1000.000
   Quad. conv. algorithm                .... NR
   White noise on init. David. guess    .... on
   Maximum white noise                  ....   0.010
   Pseudo random numbers                .... off
   Inactive MOs                         .... canonical
   Orbital update algorithm             .... Taylor
   Preconditioner                       .... Diag
   Full preconditioner red. dimension   ....   250
 SOSCF                 CNVSOSCF           .... on
   Start iteration     SOSCFMaxIt         ....   150
   Startup grad/error  SOSCFStart         ....  0.003300
   Hessian update      SOSCFHessUp        .... L-BFGS
   Autom. constraints  SOSCFAutoConstrain .... off
 Level Shifting         CNVShift        .... on
   Level shift para.    LevelShift      ....    0.2500
   Turn off err/grad.   ShiftErr        ....    0.0010
 Zerner damping         CNVZerner       .... off
 Static damping         CNVDamp         .... on
   Fraction old density DampFac         ....    0.7000
   Max. Damping (<1)    DampMax         ....    0.9800
   Min. Damping (>=0)   DampMin         ....    0.0000
   Turn off err/grad.   DampErr         ....    0.1000

SCF Procedure:
 Maximum # iterations   MaxIter         ....   125
 SCF integral mode      SCFMode         .... Direct
   Integral package                     .... SHARK and LIBINT hybrid scheme
 Reset frequency        DirectResetFreq ....    20
 Integral Threshold     Thresh          ....  2.500e-11 Eh
 Primitive CutOff       TCut            ....  2.500e-12 Eh

Convergence Tolerance:
 Convergence Check Mode ConvCheckMode   .... Total+1el-Energy
 Convergence forced     ConvForced      .... 0
 Energy Change          TolE            ....  1.000e-08 Eh
 1-El. energy change                    ....  1.000e-05 Eh
 Orbital Gradient       TolG            ....  1.000e-05
 Orbital Rotation angle TolX            ....  1.000e-05
 DIIS Error             TolErr          ....  5.000e-07

------------------------------
INITIAL GUESS: MODEL POTENTIAL
------------------------------
Loading Hartree-Fock densities                     ... done
Calculating cut-offs                               ... done
Initializing the effective Hamiltonian             ... done
Setting up the integral package (SHARK)            ... done
Starting the Coulomb interaction                   ... done (   0.0 sec)
Making the grid                                    ... done (   0.1 sec)
Mapping shells                                     ... done
Starting the XC term evaluation                    ... done (   0.0 sec)
  promolecular density results
     # of electrons  =     39.997711287
     EX              =    -31.106226130
     EC              =     -1.308895766
     EX+EC           =    -32.415121896
Transforming the Hamiltonian                       ... done (   0.0 sec)
Diagonalizing the Hamiltonian                      ... done (   0.0 sec)
Back transforming the eigenvectors                 ... done (   0.0 sec)
Now organizing SCF variables                       ... done
                      ------------------
                      INITIAL GUESS DONE (   0.1 sec)
                      ------------------
             **** ENERGY FILE WAS UPDATED (orca.en.tmp) ****
Finished Guess after   0.3 sec
Maximum memory used throughout the entire GUESS-calculation: 7.6 MB


           ************************************************************
           *        Program running with 6 parallel MPI-processes     *
           *              working on a common directory               *
           ************************************************************

-------------------------------------------------------------------------------------------
                                      ORCA LEAN-SCF
                              memory conserving SCF solver
-------------------------------------------------------------------------------------------

----------------------------------------D-I-I-S--------------------------------------------
Iteration    Energy (Eh)           Delta-E    RMSDP     MaxDP     DIISErr   Damp  Time(sec)
-------------------------------------------------------------------------------------------
               ***  Starting incremental Fock matrix formation  ***
    1    -231.8592956107289922     0.00e+00  1.09e-02  7.66e-02  2.09e-01  0.700   0.6
    2    -231.9476130866669052    -8.83e-02  7.52e-03  4.89e-02  9.05e-02  0.700   0.4
                               ***Turning on AO-DIIS***
    3    -231.9822863683899925    -3.47e-02  3.02e-03  1.95e-02  3.73e-02  0.700   0.4
    4    -232.0023617043779325    -2.01e-02  4.86e-03  2.66e-02  1.81e-02  0.000   0.4
    5    -232.0461294355988286    -4.38e-02  9.85e-04  4.98e-03  7.64e-03  0.000   0.3
                              *** Initializing SOSCF ***
---------------------------------------S-O-S-C-F--------------------------------------
Iteration    Energy (Eh)           Delta-E    RMSDP     MaxDP     MaxGrad    Time(sec)
--------------------------------------------------------------------------------------
    6    -232.0464521443890078    -3.23e-04  3.56e-04  1.71e-03  2.04e-03     0.3
               *** Restarting incremental Fock matrix formation ***
    7    -232.0465185890684268    -6.64e-05  2.79e-04  1.51e-03  2.28e-04     0.5
    8    -232.0465189471356382    -3.58e-07  1.01e-04  6.60e-04  2.50e-04     0.4
    9    -232.0465217568487617    -2.81e-06  5.89e-05  4.15e-04  9.92e-05     0.4
   10    -232.0465213419830945     4.15e-07  3.59e-05  2.41e-04  1.61e-04     0.4
   11    -232.0465219248984852    -5.83e-07  1.02e-05  6.69e-05  1.49e-05     0.4
   12    -232.0465219195664588     5.33e-09  5.62e-06  4.20e-05  1.82e-05     0.4
                 **** Energy Check signals convergence ****

               *****************************************************
               *                     SUCCESS                       *
               *           SCF CONVERGED AFTER  12 CYCLES          *
               *****************************************************

Recomputing exchange energy using gridx3       ... done (    0.751 sec)
Old exchange energy                            :     -6.327165830 Eh
New exchange energy                            :     -6.327195345 Eh
Exchange energy change after final integration :     -0.000029515 Eh
Total energy after final integration           :   -232.046551446 Eh
             **** ENERGY FILE WAS UPDATED (orca.en.tmp) ****

----------------
TOTAL SCF ENERGY
----------------

Total Energy       :       -232.04655144600389 Eh           -6314.30768 eV

Components:
Nuclear Repulsion  :        176.11105130601831 Eh            4792.22534 eV
Electronic Energy  :       -408.15757323669561 Eh          -11106.53221 eV
One Electron Energy:       -662.15671555352492 Eh          -18018.20026 eV
Two Electron Energy:        253.99914231682931 Eh            6911.66804 eV

Virial components:
Potential Energy   :       -461.78744720214553 Eh          -12565.87528 eV
Kinetic Energy     :        229.74089575614164 Eh            6251.56760 eV
Virial Ratio       :          2.01003589579589

DFT components:
N(Alpha)           :       20.000008063921 electrons
N(Beta)            :       20.000008063921 electrons
N(Total)           :       40.000016127841 electrons
E(X)               :      -25.143280763355 Eh       
E(C)               :       -1.552885144076 Eh       
E(XC)              :      -26.696165907430 Eh       

---------------
SCF CONVERGENCE
---------------

  Last Energy change         ...   -5.3320e-09  Tolerance :   1.0000e-08
  Last MAX-Density change    ...    4.1964e-05  Tolerance :   1.0000e-07
  Last RMS-Density change    ...    5.6161e-06  Tolerance :   5.0000e-09
  Last DIIS Error            ...    2.0383e-03  Tolerance :   5.0000e-07
  Last Orbital Gradient      ...    1.8219e-05  Tolerance :   1.0000e-05
  Last Orbital Rotation      ...    2.8551e-05  Tolerance :   1.0000e-05


----------------
ORBITAL ENERGIES
----------------

  NO   OCC          E(Eh)            E(eV) 
   0   2.0000     -19.139069      -520.8005 
   1   2.0000     -10.274704      -279.5889 
   2   2.0000     -10.204436      -277.6768 
   3   2.0000     -10.180342      -277.0212 
   4   2.0000     -10.161388      -276.5054 
   5   2.0000      -1.043151       -28.3856 
   6   2.0000      -0.768851       -20.9215 
   7   2.0000      -0.730906       -19.8890 
   8   2.0000      -0.644754       -17.5447 
   9   2.0000      -0.533338       -14.5129 
  10   2.0000      -0.481057       -13.0902 
  11   2.0000      -0.456033       -12.4093 
  12   2.0000      -0.448478       -12.2037 
  13   2.0000      -0.409162       -11.1339 
  14   2.0000      -0.397712       -10.8223 
  15   2.0000      -0.393470       -10.7069 
  16   2.0000      -0.378176       -10.2907 
  17   2.0000      -0.344509        -9.3746 
  18   2.0000      -0.310922        -8.4606 
  19   2.0000      -0.204914        -5.5760 
  20   0.0000      -0.032787        -0.8922 
  21   0.0000       0.051163         1.3922 
  22   0.0000       0.081107         2.2070 
  23   0.0000       0.100538         2.7358 
  24   0.0000       0.104753         2.8505 
  25   0.0000       0.118996         3.2380 
  26   0.0000       0.122152         3.3239 
  27   0.0000       0.150101         4.0844 
  28   0.0000       0.188346         5.1252 
  29   0.0000       0.207161         5.6371 
  30   0.0000       0.258570         7.0360 
*Only the first 10 virtual orbitals were printed.

                    ********************************
                    * MULLIKEN POPULATION ANALYSIS *
                    ********************************

-----------------------
MULLIKEN ATOMIC CHARGES
-----------------------
   0 C :    0.059708
   1 C :   -0.281957
   2 H :    0.015761
   3 H :    0.005720
   4 H :    0.008990
   5 C :    0.031512
   6 O :   -0.261738
   7 C :    0.078032
   8 H :    0.036394
   9 H :    0.037539
  10 H :    0.050666
  11 H :    0.177661
  12 H :    0.041714
Sum of atomic charges:   -0.0000000

--------------------------------
MULLIKEN REDUCED ORBITAL CHARGES
--------------------------------
  0 C s       :     2.954443  s :     2.954443
      pz      :     0.983127  p :     2.955904
      px      :     0.981274
      py      :     0.991504
      dz2     :     0.004760  d :     0.029945
      dxz     :     0.005540
      dyz     :     0.007632
      dx2y2   :     0.004262
      dxy     :     0.007750

  1 C s       :     3.163257  s :     3.163257
      pz      :     1.187023  p :     3.087063
      px      :     0.913799
      py      :     0.986242
      dz2     :     0.004007  d :     0.031637
      dxz     :     0.006164
      dyz     :     0.003641
      dx2y2   :     0.006108
      dxy     :     0.011717

  2 H s       :     0.961150  s :     0.961150
      pz      :     0.005357  p :     0.023089
      px      :     0.007492
      py      :     0.010241

  3 H s       :     0.971322  s :     0.971322
      pz      :     0.010239  p :     0.022959
      px      :     0.005486
      py      :     0.007234

  4 H s       :     0.968061  s :     0.968061
      pz      :     0.010799  p :     0.022949
      px      :     0.004185
      py      :     0.007965

  5 C s       :     3.195375  s :     3.195375
      pz      :     0.785353  p :     2.680174
      px      :     0.917547
      py      :     0.977274
      dz2     :     0.006968  d :     0.092939
      dxz     :     0.018799
      dyz     :     0.011342
      dx2y2   :     0.028211
      dxy     :     0.027619

  6 O s       :     3.782422  s :     3.782422
      pz      :     1.559046  p :     4.462983
      px      :     1.484221
      py      :     1.419716
      dz2     :     0.002040  d :     0.016332
      dxz     :     0.004024
      dyz     :     0.000791
      dx2y2   :     0.003375
      dxy     :     0.006102

  7 C s       :     2.918742  s :     2.918742
      pz      :     1.006356  p :     2.977425
      px      :     1.000270
      py      :     0.970798
      dz2     :     0.005068  d :     0.025801
      dxz     :     0.004885
      dyz     :     0.004297
      dx2y2   :     0.007931
      dxy     :     0.003619

  8 H s       :     0.940233  s :     0.940233
      pz      :     0.010780  p :     0.023373
      px      :     0.007710
      py      :     0.004883

  9 H s       :     0.939323  s :     0.939323
      pz      :     0.004818  p :     0.023138
      px      :     0.013714
      py      :     0.004606

 10 H s       :     0.924759  s :     0.924759
      pz      :     0.011317  p :     0.024575
      px      :     0.006532
      py      :     0.006726

 11 H s       :     0.766711  s :     0.766711
      pz      :     0.007928  p :     0.055628
      px      :     0.031993
      py      :     0.015706

 12 H s       :     0.931686  s :     0.931686
      pz      :     0.011718  p :     0.026600
      px      :     0.004189
      py      :     0.010693



                     *******************************
                     * LOEWDIN POPULATION ANALYSIS *
                     *******************************

----------------------
LOEWDIN ATOMIC CHARGES
----------------------
   0 C :   -0.063650
   1 C :   -0.236806
   2 H :    0.031673
   3 H :    0.017012
   4 H :    0.021401
   5 C :    0.107921
   6 O :   -0.149905
   7 C :   -0.061565
   8 H :    0.041276
   9 H :    0.044590
  10 H :    0.057851
  11 H :    0.141335
  12 H :    0.048868

-------------------------------
LOEWDIN REDUCED ORBITAL CHARGES
-------------------------------
  0 C s       :     2.838001  s :     2.838001
      pz      :     1.057254  p :     3.149818
      px      :     1.031633
      py      :     1.060931
      dz2     :     0.012543  d :     0.075830
      dxz     :     0.012749
      dyz     :     0.019603
      dx2y2   :     0.011315
      dxy     :     0.019621

  1 C s       :     2.891815  s :     2.891815
      pz      :     1.182748  p :     3.262675
      px      :     1.013587
      py      :     1.066341
      dz2     :     0.010685  d :     0.082316
      dxz     :     0.011845
      dyz     :     0.009239
      dx2y2   :     0.018624
      dxy     :     0.031923

  2 H s       :     0.904750  s :     0.904750
      pz      :     0.012845  p :     0.063577
      px      :     0.022151
      py      :     0.028581

  3 H s       :     0.919417  s :     0.919417
      pz      :     0.028388  p :     0.063571
      px      :     0.016271
      py      :     0.018912

  4 H s       :     0.915587  s :     0.915587
      pz      :     0.029607  p :     0.063011
      px      :     0.012233
      py      :     0.021172

  5 C s       :     2.881529  s :     2.881529
      pz      :     0.767460  p :     2.808123
      px      :     1.001352
      py      :     1.039311
      dz2     :     0.014471  d :     0.202426
      dxz     :     0.037642
      dyz     :     0.020511
      dx2y2   :     0.063488
      dxy     :     0.066314

  6 O s       :     3.553564  s :     3.553564
      pz      :     1.559481  p :     4.567473
      px      :     1.556912
      py      :     1.451080
      dz2     :     0.004298  d :     0.028868
      dxz     :     0.005784
      dyz     :     0.001508
      dx2y2   :     0.006295
      dxy     :     0.010983

  7 C s       :     2.838491  s :     2.838491
      pz      :     1.062182  p :     3.154528
      px      :     1.068142
      py      :     1.024204
      dz2     :     0.013317  d :     0.068546
      dxz     :     0.012282
      dyz     :     0.011337
      dx2y2   :     0.021866
      dxy     :     0.009744

  8 H s       :     0.893638  s :     0.893638
      pz      :     0.029055  p :     0.065086
      px      :     0.021177
      py      :     0.014854

  9 H s       :     0.889531  s :     0.889531
      pz      :     0.012049  p :     0.065879
      px      :     0.039069
      py      :     0.014761

 10 H s       :     0.876599  s :     0.876599
      pz      :     0.031156  p :     0.065550
      px      :     0.015742
      py      :     0.018652

 11 H s       :     0.697331  s :     0.697331
      pz      :     0.014384  p :     0.161335
      px      :     0.110467
      py      :     0.036485

 12 H s       :     0.874495  s :     0.874495
      pz      :     0.033781  p :     0.076637
      px      :     0.012032
      py      :     0.030824



                      *****************************
                      * MAYER POPULATION ANALYSIS *
                      *****************************

  NA   - Mulliken gross atomic population
  ZA   - Total nuclear charge
  QA   - Mulliken gross atomic charge
  VA   - Mayer's total valence
  BVA  - Mayer's bonded valence
  FA   - Mayer's free valence

  ATOM       NA         ZA         QA         VA         BVA        FA
  0 C      5.9403     6.0000     0.0597     3.9510     3.9510     0.0000
  1 C      6.2820     6.0000    -0.2820     3.7421     3.7421    -0.0000
  2 H      0.9842     1.0000     0.0158     0.9892     0.9892     0.0000
  3 H      0.9943     1.0000     0.0057     0.9810     0.9810     0.0000
  4 H      0.9910     1.0000     0.0090     0.9875     0.9875     0.0000
  5 C      5.9685     6.0000     0.0315     4.1017     4.1017    -0.0000
  6 O      8.2617     8.0000    -0.2617     2.2463     2.2463    -0.0000
  7 C      5.9220     6.0000     0.0780     3.9168     3.9168     0.0000
  8 H      0.9636     1.0000     0.0364     0.9919     0.9919     0.0000
  9 H      0.9625     1.0000     0.0375     1.0087     1.0087    -0.0000
 10 H      0.9493     1.0000     0.0507     0.9985     0.9985    -0.0000
 11 H      0.8223     1.0000     0.1777     1.0439     1.0439    -0.0000
 12 H      0.9583     1.0000     0.0417     1.0030     1.0030    -0.0000

  Mayer bond orders larger than 0.100000
B(  0-C ,  1-C ) :   1.0573 B(  0-C ,  2-H ) :   0.9580 B(  0-C ,  3-H ) :   0.9546 
B(  0-C ,  4-H ) :   0.9739 B(  1-C ,  5-C ) :   1.2372 B(  1-C , 11-H ) :   0.4227 
B(  1-C , 12-H ) :   0.9081 B(  5-C ,  6-O ) :   1.5719 B(  5-C ,  7-C ) :   1.0995 
B(  6-O , 11-H ) :   0.5063 B(  7-C ,  8-H ) :   0.9484 B(  7-C ,  9-H ) :   0.9416 
B(  7-C , 10-H ) :   0.9334 

-------
TIMINGS
-------

Total SCF time: 0 days 0 hours 0 min 6 sec 

Total time                  ....       6.240 sec
Sum of individual times     ....       5.810 sec  ( 93.1%)

SCF preparation             ....       0.171 sec  (  2.7%)
Fock matrix formation       ....       5.438 sec  ( 87.1%)
  Startup                   ....       0.004 sec  (  0.1% of F)
  Split-RI-J                ....       0.444 sec  (  8.2% of F)
  Chain of spheres X        ....       4.080 sec  ( 75.0% of F)
  XC integration            ....       1.182 sec  ( 21.7% of F)
    Basis function eval.    ....       0.334 sec  ( 28.3% of XC)
    Density eval.           ....       0.177 sec  ( 15.0% of XC)
    XC-Functional eval.     ....       0.071 sec  (  6.0% of XC)
    XC-Potential eval.      ....       0.209 sec  ( 17.7% of XC)
Diagonalization             ....       0.000 sec  (  0.0%)
Density matrix formation    ....       0.030 sec  (  0.5%)
Total Energy calculation    ....       0.014 sec  (  0.2%)
Population analysis         ....       0.012 sec  (  0.2%)
Orbital Transformation      ....       0.015 sec  (  0.2%)
Orbital Orthonormalization  ....       0.000 sec  (  0.0%)
DIIS solution               ....       0.083 sec  (  1.3%)
SOSCF solution              ....       0.047 sec  (  0.8%)
Finished LeanSCF after   6.3 sec

Maximum memory used throughout the entire LEANSCF-calculation: 9.8 MB


-------------------------------------------------------------------------------
                          DFT DISPERSION CORRECTION                            
                                                                               
                              DFTD3 V3.1  Rev 1                                
                          USING Becke-Johnson damping                          
-------------------------------------------------------------------------------
The B3LYP functional is recognized
Active option DFTDOPT                   ...         4   

molecular C6(AA) [au] = 1281.793132 


            DFT-D V3
 parameters
 s6 scaling factor         :     1.0000 
 a1 scaling factor         :     0.3981 
 s8 scaling factor         :     1.9889 
 a2 scaling factor         :     4.4211 
 ad hoc parameters k1-k3   :    16.0000     1.3333    -4.0000 

 Edisp/kcal,au: -9.396123820662  -0.014973674832 
 E6   /kcal   :  -4.610575137 
 E8   /kcal   :  -4.785548684 
 % E8         :  50.931094301 

-------------------------   ----------------
Dispersion correction           -0.014973675
-------------------------   ----------------


-------------------------   --------------------
FINAL SINGLE POINT ENERGY      -232.061525120835
-------------------------   --------------------



           ************************************************************
           *        Program running with 6 parallel MPI-processes     *
           *              working on a common directory               *
           ************************************************************
------------------------------------------------------------------------------
                         ORCA SCF GRADIENT CALCULATION
------------------------------------------------------------------------------

Nuc. rep. gradient        (SHARK) ... done (  0.0 sec)
HCore & Overlap gradient  (SHARK) ... done (  0.0 sec)
Split-RIJ-J gradient      (SHARK) ... done (  0.2 sec)
done (  2.9 sec)
XC gradient                       ... done (  0.6 sec)
Dispersion correction             ... done (  0.0 sec)

-------------------
DISPERSION GRADIENT
-------------------

   1   C   :    0.000472757    0.000167964    0.000034581
   2   C   :   -0.001473807    0.000967682    0.000601166
   3   H   :    0.000197748    0.000055825    0.000027950
   4   H   :    0.000299795    0.000021941   -0.000052554
   5   H   :    0.000298602    0.000008887    0.000131764
   6   C   :   -0.000323197    0.000395899    0.000133397
   7   O   :    0.001066678    0.001136047    0.000308120
   8   C   :   -0.000302175   -0.000356952   -0.000051234
   9   H   :   -0.000092202   -0.000290604   -0.000137036
  10   H   :   -0.000115974   -0.000176213   -0.000032750
  11   H   :   -0.000105629   -0.000300332    0.000060440
  12   H   :    0.000072109   -0.001776250   -0.001001392
  13   H   :    0.000005294    0.000146107   -0.000022452

Difference to translation invariance:
           :   -0.0000000000    0.0000000000   -0.0000000000

Difference to rotation invariance:
           :   -0.0000000000   -0.0000000000   -0.0000000000

Norm of the Dispersion gradient    ...    0.0033817850
RMS gradient                       ...    0.0005415190
MAX gradient                       ...    0.0017762497

------------------
CARTESIAN GRADIENT
------------------

   1   C   :    0.000011398    0.000078468    0.000027144
   2   C   :    0.000000536    0.000092580   -0.000008499
   3   H   :   -0.000016110   -0.000004932    0.000040622
   4   H   :   -0.000000752   -0.000051279   -0.000004679
   5   H   :   -0.000021956   -0.000111293   -0.000017603
   6   C   :   -0.000024340   -0.000136582   -0.000022422
   7   O   :    0.000064554    0.000111591    0.000004652
   8   C   :    0.000040359    0.000011018    0.000012337
   9   H   :    0.000038418    0.000016090    0.000063171
  10   H   :   -0.000007313   -0.000006016    0.000069322
  11   H   :    0.000001166   -0.000037161   -0.000094482
  12   H   :   -0.000087897   -0.000009770   -0.000023163
  13   H   :    0.000001937    0.000047286   -0.000046399

Difference to translation invariance:
           :   -0.0000000001    0.0000000000    0.0000000000

Difference to rotation invariance:
           :    0.0000091997   -0.0002085898   -0.0000171581

Norm of the Cartesian gradient     ...    0.0003246622
RMS gradient                       ...    0.0000519876
MAX gradient                       ...    0.0001365818

-------
TIMINGS
-------

Total SCF gradient time     ....        3.765 sec

Densities                   ....       0.000 sec  (  0.0%)
One electron gradient       ....       0.029 sec  (  0.8%)
RI-J Coulomb gradient       ....       0.178 sec  (  4.7%)
COSX gradient               ....       2.909 sec  ( 77.3%)
XC gradient                 ....       0.598 sec  ( 15.9%)

Maximum memory used throughout the entire SCFGRAD-calculation: 27.5 MB


           ************************************************************
           *        Program running with 6 parallel MPI-processes     *
           *              working on a common directory               *
           ************************************************************

------------------------------------------------------------------------------
                              ORCA PROPERTY CALCULATIONS
------------------------------------------------------------------------------

GBWName                                 ... orca.gbw
Number of atoms                         ...     13
Number of basis functions               ...    110
Max core memory                         ...   4096 MB

Electric properties:
Dipole moment                           ... YES
Quadrupole moment                       ...  NO
Static polarizability (Dipole/Dipole)   ...  NO
Static polarizability (Dipole/Quad.)    ...  NO
Static polarizability (Quad./Quad.)     ...  NO
Static polarizability (Velocity)        ...  NO
Static hyperpolarizability              ...  NO

Atomic electric properties:
Dipole moment                           ...  NO
Quadrupole moment                       ...  NO
Static polarizability                   ...  NO

Choice of electric origin               ... Center of mass
Position of electric origin             ...    -0.805147     0.342020     0.100787

General magnetic properties:
Magnetizability                         ...  NO

EPR properties:
g-Tensor (aka g-matrix)                 ...  NO
Zero-Field splitting spin-orbit         ...  NO
Zero-field splitting spin-spin          ...  NO
Hyperfine couplings                     ...  NO (   0 nuclei)
Quadrupole couplings                    ...  NO (   0 nuclei)
Contact density                         ...  NO (   0 nuclei)

NMR properties:
Chemical shifts                         ...  NO (   0 nuclei)
Spin-rotation constants                 ...  NO (   0 nuclei)
Spin-spin couplings                     ...  NO (   0 nuclei,    0 pairs)

Choice of magnetic origin               ... GIAO
Position of magnetic origin             ...     0.000000     0.000000     0.000000

Properties with geometric perturbations:
SCF Hessian                             ...  NO
IR spectrum                             ...  NO
VCD spectrum                            ...  NO
X-ray spectroscopy properties:
SCF XES/XAS/RIXS spectra                ...  NO

SCF SOC stabilization energy            ...  NO
Diagonal Born-Oppenheimer correction    ...  NO

-------------
DIPOLE MOMENT
-------------

Method             : SCF
Type of density    : Electron Density
Multiplicity       :   1
Irrep              :   0
Energy             :  -232.0465514460038889 Eh
Basis              : AO
                                X                 Y                 Z
Electronic contribution:     -4.698471967       1.590853342       0.372980171
Nuclear contribution   :      5.121382110      -2.202039676      -0.619550377
                        -----------------------------------------
Total Dipole Moment    :      0.422910143      -0.611186333      -0.246570205
                        -----------------------------------------
Magnitude (a.u.)       :      0.783069977
Magnitude (Debye)      :      1.990405702



--------------------
Rotational spectrum 
--------------------
 
Rotational constants in cm-1:             0.264388             0.128329             0.091427 
Rotational constants in MHz :          7926.143137          3847.211414          2740.906673 

Dipole components along the rotational axes: 
x,y,z [a.u.] :     0.273645    -0.720527    -0.138411 
x,y,z [Debye]:     0.695551    -1.831434    -0.351813 

 

Dipole moment calculation done in   0.0 sec 

Maximum memory used throughout the entire PROP-calculation: 5.6 MB

--------------------------------
SUGGESTED CITATIONS FOR THIS RUN
--------------------------------

Below you find a list of papers that are relevant to this ORCA run
We neither can nor want to force you to cite these papers, but we appreciate if you do
You receive ORCA, which is the product of decades of hard work by many enthusiastic individuals, for free
The only thing we kindly ask in return is that you cite our papers,
We deeply appreciate it, if you show your appreciation for ORCA by not just citing the generic ORCA reference.

Please note that relegating all ORCA citations to the supporting information does *not* help us.
SI sections are not indexed - citations you put there will not count into any citation statistics
But we need these citations in order to attract the funding resources that allow us to do what we are doing

Therefore, if you are a happy ORCA user, please consider citing a few of the papers listed below in the main body of your paper

In addition to the list printed below, the program has created the file orca.bibtex that contains the list in bibtex format
You can import this file easily into all common literature databanks and citation aid programs


List of essential papers. We consider these as the minimum necessary citations

  1. Neese, F.
     Software update: the ORCA program system, version 6.0
     WIRES Comput. Molec. Sci. 2025 15(1), e70019
     doi.org/10.1002/wcms.7019

List of papers to cite with high priority. The work reported in these papers was absolutely
necessary for this run to complete.
Our perspective: the developers of density functionals and basis sets usually get cited in chemistry papers
Good! But without the algorithms to do something with them, the functionals or basis sets would not do anything.
Hence, in our opinion, the algorithm design and method developments papers are equally worthy of getting cited

  1. Neese, F.
     An improvement of the resolution of the identity approximation for the formation of the Coulomb matrix
     J. Comp. Chem. 2003 24(14), 1740-1747
     doi.org/10.1002/jcc.10318
  2. Neese, F.; Wennmohs, F.; Hansen, A.; Becker, U.
     Efficient, approximate and parallel Hartree-Fock and hybrid DFT calculations. A 'chain-of-spheres' algorithm for the Hartree-Fock exchange
     Chem. Phys. 2009 356(1-3), 98-109
     doi.org/10.1016/j.chemphys.2008.10.036
  3. Grimme, S.; Antony, J.; Ehrlich, S.; Krieg, H.
     A consistent and accurate ab initio parametrization of density functional dispersion correction (DFT-D) for the 94 elements H-Pu
     J. Chem. Phys. 2010 132 , 154104
     doi.org/10.1063/1.3382344
  4. Grimme, S.; Ehrlich, S.; Goerigk, L.
     Effect of the damping function in dispersion corrected density functional theory
     J. Comput. Chem. 2011 32(7), 1456-1465
     doi.org/10.1002/jcc.21759
  5. Helmich-Paris, B.; de Souza, B.; Neese, F.; Izsák, R.
     An improved chain of spheres for exchange algorithm
     J. Chem. Phys. 2021 155(10), 104109
     doi.org/10.1063/5.0058766
  6. Neese, F.
     The SHARK Integral Generation and Digestion System
     J. Comp. Chem. 2022 44(3), 381
     doi.org/10.1002/jcc.26942

List of suggested additional citations. These are papers that are important in the 'surrounding' of 
of this run, or papers that preceded the highly important papers. If you like your results we are grateful for a citation.

  1. Izsak, R.; Neese, F.
     An overlap fitted chain of spheres exchange method
     J. Chem. Phys. 2011 135 , 144105
     doi.org/10.1063/1.3646921
  2. Izsak, R.; Hansen, A.; Neese, F.
     The resolution of identity and chain of spheres approximations for the LPNO-CCSD singles Fock term
     Molec. Phys. 2012 110 , 2413-2417
     doi.org/10.1080/00268976.2012.687466
  3. Neese, F.
     The ORCA program system
     WIRES Comput. Molec. Sci. 2012 2(1), 73-78
     doi.org/10.1002/wcms.81
  4. Izsak, R.; Neese, F.; Klopper, W.
     Robust fitting techniques in the chain of spheres approximation to the Fock exchange: The role of the complementary space
     J. Chem. Phys. 2013 139 , 
     doi.org/10.1063/1.4819264
  5. Neese, F.
     Software update: the ORCA program system, version 4.0
     WIRES Comput. Molec. Sci. 2018 8(1), 1-6
     doi.org/10.1002/wcms.1327
  6. Neese, F.; Wennmohs, F.; Becker, U.; Riplinger, C.
     The ORCA quantum chemistry program package
     J. Chem. Phys. 2020 152(22), 224108
     doi.org/10.1063/5.0004608
  7. Neese, F.
     Software update: The ORCA program system—Version 5.0
     WIRES Comput. Molec. Sci. 2022 12(1), e1606
     doi.org/10.1002/wcms.1606

List of optional additional citations

  1. Neese, F.
     Approximate second-order SCF convergence for spin unrestricted wavefunctions
     Chem. Phys. Lett. 2000 325(1-3), 93-98
     doi.org/10.1016/s0009-2614(00)00662-x

Timings for individual modules:

Sum of individual times          ...       12.889 sec (=   0.215 min)
Startup calculation              ...        1.121 sec (=   0.019 min)   8.7 %
SCF iterations                   ...        7.130 sec (=   0.119 min)  55.3 %
Property calculations            ...        0.439 sec (=   0.007 min)   3.4 %
SCF Gradient evaluation          ...        4.198 sec (=   0.070 min)  32.6 %
                             ****ORCA TERMINATED NORMALLY****
TOTAL RUN TIME: 0 days 0 hours 0 minutes 13 seconds 464 msec
