
                                 *****************
                                 * O   R   C   A *
                                 *****************

                                            #,                                       
                                            ###                                      
                                            ####                                     
                                            #####                                    
                                            ######                                   
                                           ########,                                 
                                     ,,################,,,,,                         
                               ,,#################################,,                 
                          ,,##########################################,,             
                       ,#########################################, ''#####,          
                    ,#############################################,,   '####,        
                  ,##################################################,,,,####,       
                ,###########''''           ''''###############################       
              ,#####''   ,,,,##########,,,,          '''####'''          '####       
            ,##' ,,,,###########################,,,                        '##       
           ' ,,###''''                  '''############,,,                           
         ,,##''                                '''############,,,,        ,,,,,,###''
      ,#''                                            '''#######################'''  
     '                                                          ''''####''''         
             ,#######,   #######,   ,#######,      ##                                
            ,#'     '#,  ##    ##  ,#'     '#,    #''#        ,####,    ,#,          
            ##       ##  ##   ,#'  ##            #'  '#       #'       ,# #          
            ##       ##  #######   ##           ,######,      #####,      #          
            '#,     ,#'  ##    ##  '#,     ,#' ,#      #,     #,   #      #          
             '#######'   ##     ##  '#######'  #'      '#     '####' #    #          



                #########################################################
                #                        -***-                          #
                #          Department of theory and spectroscopy        #
                #                                                       #
                #                      Frank Neese                      #
                #                                                       #
                #     Directorship, Architecture, Infrastructure        #
                #                    SHARK, DRIVERS                     #
                #        Core code/Algorithms in most modules           #
                #                                                       #
                #        Max Planck Institute fuer Kohlenforschung      #
                #                Kaiser Wilhelm Platz 1                 #
                #                 D-45470 Muelheim/Ruhr                 #
                #                      Germany                          #
                #                                                       #
                #                  All rights reserved                  #
                #                        -***-                          #
                #########################################################


                         Program Version 6.1.0  -  RELEASE   -
                                (GIT: $679e74b$)
                          ($2025-06-10 18:02:51 +0200$)


 With contributions from (in alphabetic order):
[Max-Planck-Institut fuer Kohlenforschung]                               
  Daniel Aravena         : Magnetic Suceptibility                        
  Michael Atanasov       : Ab Initio Ligand Field Theory (pilot matlab implementation)
  Alexander A. Auer      : GIAO ZORA, VPT2 properties, NMR spectrum      
  Ute Becker             : All parallelization in ORCA, NUMFREQ, NUMCALC 
  Giovanni Bistoni       : ED, misc. LED, open-shell LED, HFLD           
  Dmytro Bykov           : pre 5.0 version of the SCF Hessian            
  Marcos Casanova-Páez   : Triplet and SCS-CIS(D). UHF-(DLPNO)-IP/EA/STEOM-CCSD. UHF-CVS-IP/STEOM-CCSD   
  Vijay G. Chilkuri      : MRCI spin determinant printing, contributions to CSF-ICE 
  Pauline Colinet        : FMM embedding                                 
  Dipayan Datta          : RHF DLPNO-CCSD density                        
  Achintya Kumar Dutta   : EOM-CC, STEOM-CC                              
  Nicolas Foglia         : Exact transition moments, OPA infrastructure, MCD improvements    
  Dmitry Ganyushin       : Spin-Orbit,Spin-Spin,Magnetic field MRCI      
  Miquel Garcia-Rates    : C-PCM and meta-GGA Hessian, CCSD/C-PCM, Gaussian charge scheme 
  Tiago L. C. Gouveia    : GS-ROHF, GS-ROCIS                             
  Yang Guo               : DLPNO-NEVPT2, F12-NEVPT2, CIM, IAO-localization        
  Andreas Hansen         : Spin unrestricted coupled pair/coupled cluster methods 
  Ingolf Harden          : AUTO-CI MPn and infrastructure                
  Benjamin Helmich-Paris : MC-RPA, TRAH-(SCF,CASSCF), AVAS, COSX integrals, SCF dyn. polar., MC-PDFT, srDFT 
  Lee Huntington         : MR-EOM, pCC                                   
  Robert Izsak           : Overlap fitted RIJCOSX, COSX-SCS-MP3, EOM     
  Riya Kayal             : Wick's Theorem for AUTO-CI, AUTO-CI UHF-CCSDT 
  Emily Kempfer          : AUTO-CI RHF CISDT and CCSDT, approximate NEVPT4
  Christian Kollmar      : KDIIS, OOCD, Brueckner-CCSD(T), CCSD density, CASPT2, CASPT2-K, improved NEVPT2 
  Axel Koslowski         : Symmetry handling                             
  Simone Kossmann        : meta-GGA functionals, TD-DFT gradient, OOMP2, (MP2 Hessian; deprecated post 5.0) 
  Lucas Lang             : DCDCAS, Hyperfine gauge corrections, ICE-SOC+SSC
  Marvin Lechner         : AUTO-CI (C++ implementation), FIC-MRCC        
  Spencer Leger          : CASSCF response                               
  Dagmar Lenk            : GEPOL surface, SMD, ORCA-2-JSON               
  Dimitrios Liakos       : Extrapolation schemes; Compound Job, Property file
  Dimitrios Manganas     : Further ROCIS development; embedding schemes. LFT, Crystal Embedding 
  Dimitrios Pantazis     : SARC Basis sets                               
  Anastasios Papadopoulos: AUTO-CI, single reference methods and gradients 
  Taras Petrenko         : pre 6.0 DFT Hessian and TD-DFT gradient,  ECA, NRVS 
  Petra Pikulova         : Analytic Raman intensities                    
  Peter Pinski           : DLPNO-MP2, DLPNO-MP2 Gradient                 
  Shashank Vittal Rao    : ES-AILFT, MagRelax                            
  Christoph Reimann      : Effective Core Potentials                     
  Marius Retegan         : Local ZFS, SOC                                
  Christoph Riplinger    : Optimizer, TS searches, QM/MM, DLPNO-CCSD(T), (RO)-DLPNO pert. Triples 
  Michael Roemelt        : Original ROCIS implementation, recursive CI coupling coefficients
  Masaaki Saitow         : Open-shell DLPNO-CCSD energy and density      
  Barbara Sandhoefer     : DKH picture change effects                    
  Yorick L. A. Schmerwitz: GMF and freeze-and-release deltaSCF, NEB S-IDPP initial path                    
  Kantharuban Sivalingam : CASSCF convergence/infrastructure, NEVPT2, NEVPT3, NEVPT4(SD), FIC-MRCI and CEPA variants
  Bernardo de Souza      : ESD, SOC TD-DFT                               
  Georgi L. Stoychev     : AutoAux, RI-MP2 NMR, DLPNO-MP2 response, X2C  
  Van Anh Tran           : RI-MP2 g-tensors                              
  Willem Van den Heuvel  : Paramagnetic NMR                              
  Zikuan Wang            : NOTCH, Electric field optimization            
  Frank Wennmohs         : Technical directorship and infrastructure     
  Hang Xu                : AUTO-CI-Response properties                   
                                                                         
[FACCTs GmbH]                                                            
  Markus Bursch, Nicolas Foglia, Miquel Garcia-Rates, Ingolf Harden, Hagen Neugebauer, Anastasios Papadopoulos, 
  Christoph Riplinger, Bernardo de Souza, Georgi L. Stoychev                                                    
                                                                 
  APM, various basis sets, CI-OPT, improved COSX, DLPNO-Multilevel,           
  DOCKER, DRACO, updates on ESD, Fragmentator, GOAT, IRC, LR-CPCM, L-BFGS, MBIS, meta-GGA TD-DFT gradient, ML-optimized integration grids, 
  MM, NACMEs, nearIR, NEB, NEB-TS, NL-DFT gradient (VV10), 2- and 3-layer-ONIOM, interface openCOSMO-RS, QMMM,   
  Crystal-QMMM, RESP, rigid body optimization, SF, symmetry and pop. for TD-DFT, various functionals, SOLVATOR                                   
                                                                         
[Other institutions]                                                     
  V. Asgeirsson          : NEB                                           
  Christoph Bannwarth    : sTDA-DFT, sTD-DFT, PBEh-3c, B97-3c, D3        
  Giovanni Bistoni       : ETS/NOCV, ADLD/ADEX, COVALED                  
  Martin Brehm           : Molecular dynamics                            
  Ronald Cardenas        : ETS/NOCV                                      
  Martina Colucci        : COVALED                                       
  Sebastian Ehlert       : rSCAN, r2SCAN, r2SCAN-3c, D4, dhf basis sets  
  Marvin Friede          : D4 for Fr, Ra, Ac-Lr                          
  Lars Goerigk           : TD-DFT with DH, B97 family of functionals     
  Stefan Grimme          : VdW corrections, initial TS optimization, DFT functionals, gCP, sTDA/sTD-DF 
  Waldemar Hujo          : DFT-NL                                        
  H. Jonsson             : NEB                                           
  Holger Kruse           : gCP                                           
  Marcel Mueller         : wB97X-3c, vDZP basis set                      
  Hagen Neugebauer       : wr2SCAN, Native XTB                           
  Gianluca Regni         : ADLD/ADEX                                     
  Tobias Risthaus        : pre 6.0 range-separated hybrid DFT and stability analysis
  Lukas Wittmann         : regularized MP2, r2SCAN double-hybrids, wr2SCAN        
                                                                         
We gratefully acknowledge several colleagues who have allowed us to      
interface, adapt or use parts of their codes:                            
  Ed Valeev, F. Pavosevic, A. Kumar             : LibInt (2-el integral package), F12 methods 
  Garnet Chan, S. Sharma, J. Yang, R. Olivares  : DMRG                   
  Ulf Ekstrom                                   : XCFun DFT Library      
  Mihaly Kallay                                 : mrcc  (arbitrary order and MRCC methods)
  Frank Weinhold                                : gennbo (NPA and NBO analysis)           
  Simon Mueller                                 : openCOSMO-RS                            
  Christopher J. Cramer and Donald G. Truhlar   : smd solvation model                     
  S Lehtola, MJT Oliveira, MAL Marques          : LibXC Library                           
  Liviu Ungur et al                             : ANISO software                          


 Your calculation uses the libint2 library for the computation of 2-el integrals
 For citations please refer to: http://libint.valeyev.net

 Your ORCA version has been built with support for libXC version: 7.0.0
 For citations please refer to: https://libxc.gitlab.io

 This ORCA versions uses:
   CBLAS   interface :  Fast vector & matrix operations
   LAPACKE interface :  Fast linear algebra routines
   SCALAPACK package :  Parallel linear algebra routines
   Shared memory     :  Shared parallel matrices
   BLAS/LAPACK       :  OpenBLAS 0.3.29  USE64BITINT DYNAMIC_ARCH NO_AFFINITY Zen SINGLE_THREADED
        Core in use  :  Zen
   Copyright (c) 2011-2014, The OpenBLAS Project


  ***********************************
  * Starting time: Wed Sep 10 13:35:07 2025
  * Host name:     wyk-Server
  * Process ID:    2287939
  * Working dir.:  /home/wyk/Documents/code/openQDC/MGMR/singlepointcalc/43/prod
  ***********************************

Your calculation utilizes the atom-pairwise dispersion correction
with the Becke-Johnson damping scheme (D3BJ)


Warning: RI is on but no J-basis has been assigned. Assigning Def2/J (nothing to worry about!)
================================================================================

----- Orbital basis set information -----
Your calculation utilizes the basis: def2-SVP
   F. Weigend and R. Ahlrichs, Phys. Chem. Chem. Phys. 7, 3297 (2005).

----- AuxJ basis set information -----
Your calculation utilizes the auxiliary basis: def2/J
   H-Rn: F. Weigend, Phys. Chem. Chem. Phys. 8, 1057 (2006).
   Fr-Lr: K. Eichkorn, F. Weigend, O. Treutler, R. Ahlrichs; Theor. Chem. Acc. 97, 119 (1997).

================================================================================
                                        WARNINGS
                       Please study these warnings very carefully!
================================================================================


================================================================================
                                       INPUT FILE
================================================================================
NAME = orca.inp
|  1> ! B3LYP def2-SVP d3 EnGrad 
|  2> %pal nprocs 6 end 
|  3> *xyz 0 1 
|  4> C   2.44537605978403 0.58243355430195 0.19472988649768
|  5> C   1.49412670548446 0.08355755413855 -0.9054738106582
|  6> C   0.08710480416195 -0.08874178226675 -0.36001141539645
|  7> C   -0.26680698572319 -1.42185453688859 0.25727942422258
|  8> O   -0.70689376956427 0.83488134963717 -0.40367546261817
|  9> H   3.46107415688089 0.72496954787478 -0.20465754946784
| 10> H   2.51162308964334 -0.13254293361716 1.03097666156602
| 11> H   2.0986147997167 1.54679012481647 0.5977245454935
| 12> H   0.539797626451 -1.77553780844949 0.919811462553
| 13> H   -0.36446623882027 -2.16900586145206 -0.54998314689394
| 14> H   -1.22067934209896 -1.34071466121856 0.7958938633219
| 15> H   1.44789734266118 0.82017184209504 -1.72218131004105
| 16> H   1.85991369716857 -0.87332270330479 -1.31364610476736
| 17> H   -2.37035814109232 0.48875952288671 0.4751213488681
| 18> O   -3.02186575449884 0.10426179010733 1.09343576632966
| 19> H   -2.77271605015426 0.5054900013394 1.93730984099055
| 20> *
| 21> 
| 22>                          ****END OF INPUT****
================================================================================

                     *******************************
                     * Energy+Gradient Calculation *
                     *******************************

---------------------------------
CARTESIAN COORDINATES (ANGSTROEM)
---------------------------------
  C      2.445376    0.582434    0.194730
  C      1.494127    0.083558   -0.905474
  C      0.087105   -0.088742   -0.360011
  C     -0.266807   -1.421855    0.257279
  O     -0.706894    0.834881   -0.403675
  H      3.461074    0.724970   -0.204658
  H      2.511623   -0.132543    1.030977
  H      2.098615    1.546790    0.597725
  H      0.539798   -1.775538    0.919811
  H     -0.364466   -2.169006   -0.549983
  H     -1.220679   -1.340715    0.795894
  H      1.447897    0.820172   -1.722181
  H      1.859914   -0.873323   -1.313646
  H     -2.370358    0.488760    0.475121
  O     -3.021866    0.104262    1.093436
  H     -2.772716    0.505490    1.937310

----------------------------
CARTESIAN COORDINATES (A.U.)
----------------------------
  NO LB      ZA    FRAG     MASS         X           Y           Z
   0 C     6.0000    0    12.011    4.621091    1.100640    0.367986
   1 C     6.0000    0    12.011    2.823490    0.157901   -1.711098
   2 C     6.0000    0    12.011    0.164604   -0.167698   -0.680323
   3 C     6.0000    0    12.011   -0.504192   -2.686916    0.486188
   4 O     8.0000    0    15.999   -1.335836    1.577697   -0.762836
   5 H     1.0000    0     1.008    6.540482    1.369994   -0.386747
   6 H     1.0000    0     1.008    4.746280   -0.250470    1.948264
   7 H     1.0000    0     1.008    3.965807    2.923010    1.129536
   8 H     1.0000    0     1.008    1.020070   -3.355280    1.738192
   9 H     1.0000    0     1.008   -0.688741   -4.098827   -1.039318
  10 H     1.0000    0     1.008   -2.306750   -2.533584    1.504021
  11 H     1.0000    0     1.008    2.736129    1.549900   -3.254451
  12 H     1.0000    0     1.008    3.514728   -1.650341   -2.482431
  13 H     1.0000    0     1.008   -4.479328    0.923622    0.897849
  14 O     8.0000    0    15.999   -5.710499    0.197026    2.066294
  15 H     1.0000    0     1.008   -5.239674    0.955238    3.660985

--------------------------------
INTERNAL COORDINATES (ANGSTROEM)
--------------------------------
 C      0   0   0     0.000000000000     0.00000000     0.00000000
 C      1   0   0     1.537595776799     0.00000000     0.00000000
 C      2   1   0     1.518857108741   110.66758524     0.00000000
 C      3   2   1     1.511122480884   117.62866959   271.71748909
 O      3   2   1     1.218778065887   120.30933755    90.33161332
 H      1   2   3     1.100667732750   110.68798231   181.03285090
 H      1   2   3     1.102219903674   111.69051840    61.05048014
 H      1   2   3     1.101195560179   110.55944814   300.73631784
 H      4   3   2     1.102112316770   110.93265973    44.38558510
 H      4   3   2     1.104284967858   108.60120976   287.44831513
 H      4   3   2     1.098436008918   109.78673674   167.91337320
 H      2   1   3     1.100794668754   109.86121000   118.75719047
 H      2   1   3     1.102735041634   109.94846632   238.29699472
 H      5   3   2     1.912902995495   114.38966425   185.47321624
 O     14   5   3     0.977043190284   160.35623838    25.90862713
 H     15  14   5     0.967048657798   102.54240381    71.75267703

---------------------------
INTERNAL COORDINATES (A.U.)
---------------------------
 C      0   0   0     0.000000000000     0.00000000     0.00000000
 C      1   0   0     2.905634922824     0.00000000     0.00000000
 C      2   1   0     2.870223972079   110.66758524     0.00000000
 C      3   2   1     2.855607643682   117.62866959   271.71748909
 O      3   2   1     2.303156762557   120.30933755    90.33161332
 H      1   2   3     2.079960579342   110.68798231   181.03285090
 H      1   2   3     2.082893757300   111.69051840    61.05048014
 H      1   2   3     2.080958028628   110.55944814   300.73631784
 H      4   3   2     2.082690447517   110.93265973    44.38558510
 H      4   3   2     2.086796163058   108.60120976   287.44831513
 H      4   3   2     2.075743232493   109.78673674   167.91337320
 H      2   1   3     2.080200453625   109.86121000   118.75719047
 H      2   1   3     2.083867226967   109.94846632   238.29699472
 H      5   3   2     3.614862782244   114.38966425   185.47321624
 O     14   5   3     1.846344050649   160.35623838    25.90862713
 H     15  14   5     1.827457121414   102.54240381    71.75267703

---------------------
BASIS SET INFORMATION
---------------------
There are 3 groups of distinct atoms

 Group   1 Type C   : 7s4p1d contracted to 3s2p1d pattern {511/31/1}
 Group   2 Type O   : 7s4p1d contracted to 3s2p1d pattern {511/31/1}
 Group   3 Type H   : 4s1p contracted to 2s1p pattern {31/1}

Atom   0C    basis set group =>   1
Atom   1C    basis set group =>   1
Atom   2C    basis set group =>   1
Atom   3C    basis set group =>   1
Atom   4O    basis set group =>   2
Atom   5H    basis set group =>   3
Atom   6H    basis set group =>   3
Atom   7H    basis set group =>   3
Atom   8H    basis set group =>   3
Atom   9H    basis set group =>   3
Atom  10H    basis set group =>   3
Atom  11H    basis set group =>   3
Atom  12H    basis set group =>   3
Atom  13H    basis set group =>   3
Atom  14O    basis set group =>   2
Atom  15H    basis set group =>   3
---------------------------------
AUXILIARY/J BASIS SET INFORMATION
---------------------------------
There are 3 groups of distinct atoms

 Group   1 Type C   : 12s5p4d2f1g contracted to 6s4p3d1f1g pattern {711111/2111/211/2/1}
 Group   2 Type O   : 12s5p4d2f1g contracted to 6s4p3d1f1g pattern {711111/2111/211/2/1}
 Group   3 Type H   : 5s2p1d contracted to 3s1p1d pattern {311/2/1}

Atom   0C    basis set group =>   1
Atom   1C    basis set group =>   1
Atom   2C    basis set group =>   1
Atom   3C    basis set group =>   1
Atom   4O    basis set group =>   2
Atom   5H    basis set group =>   3
Atom   6H    basis set group =>   3
Atom   7H    basis set group =>   3
Atom   8H    basis set group =>   3
Atom   9H    basis set group =>   3
Atom  10H    basis set group =>   3
Atom  11H    basis set group =>   3
Atom  12H    basis set group =>   3
Atom  13H    basis set group =>   3
Atom  14O    basis set group =>   2
Atom  15H    basis set group =>   3


           ************************************************************
           *        Program running with 6 parallel MPI-processes     *
           *              working on a common directory               *
           ************************************************************
------------------------------------------------------------------------------
                             ORCA STARTUP CALCULATIONS
                           -- RI-GTO INTEGRALS CHOSEN --
------------------------------------------------------------------------------
------------------------------------------------------------------------------
                   ___                                                        
                  /   \      - P O W E R E D   B Y -                         
                 /     \                                                     
                 |  |  |   _    _      __       _____    __    __             
                 |  |  |  | |  | |    /  \     |  _  \  |  |  /  |          
                  \  \/   | |  | |   /    \    | | | |  |  | /  /          
                 / \  \   | |__| |  /  /\  \   | |_| |  |  |/  /          
                |  |  |   |  __  | /  /__\  \  |    /   |      \           
                |  |  |   | |  | | |   __   |  |    \   |  |\   \          
                \     /   | |  | | |  |  |  |  | |\  \  |  | \   \       
                 \___/    |_|  |_| |__|  |__|  |_| \__\ |__|  \__/        
                                                                              
                      - O R C A' S   B I G   F R I E N D -                    
                                      &                                       
                       - I N T E G R A L  F E E D E R -                       
                                                                              
 v1 FN, 2020, v2 2021, v3 2022-2024                                           
------------------------------------------------------------------------------


----------------------
SHARK INTEGRAL PACKAGE
----------------------

Number of atoms                             ...     16
Number of basis functions                   ...    134
Number of shells                            ...     66
Maximum angular momentum                    ...      2
Integral batch strategy                     ... SHARK/LIBINT Hybrid
RI-J (if used) integral strategy            ... SPLIT-RIJ (Revised 2003 algorithm where possible)
Printlevel                                  ...      1
Contraction scheme used                     ... SEGMENTED contraction
Prescreening option                         ... SCHWARTZ
   Thresh                                   ... 2.500e-11
   Tcut                                     ... 2.500e-12
   Tpresel                                  ... 2.500e-12 
Coulomb Range Separation                    ... NOT USED
Exchange Range Separation                   ... NOT USED
Multipole approximations                    ... NOT USED
Finite Nucleus Model                        ... NOT USED
CABS basis                                  ... NOT available
Auxiliary Coulomb fitting basis             ... AVAILABLE
   # of basis functions in Aux-J            ...    404
   # of shells in Aux-J                     ...    140
   Maximum angular momentum in Aux-J        ...      4
Auxiliary J/K fitting basis                 ... NOT available
Auxiliary Correlation fitting basis         ... NOT available
Auxiliary 'external' fitting basis          ... NOT available

Checking pre-screening integrals            ... done (  0.0 sec) Dimension = 66
   => SHARK Basis and OBASIS are compatible. Storing Pre-screening
Shell pair information
Shell pair cut-off parameter TPreSel        ...   2.5e-12
Total number of shell pairs                 ...      2211
Shell pairs after pre-screening             ...      2069
Total number of primitive shell pairs       ...      7611
Primitive shell pairs kept                  ...      5403
          la=0 lb=0:    705 shell pairs
          la=1 lb=0:    781 shell pairs
          la=1 lb=1:    233 shell pairs
          la=2 lb=0:    211 shell pairs
          la=2 lb=1:    120 shell pairs
          la=2 lb=2:     19 shell pairs

Checking whether 4 symmetric matrices of dimension 134 fit in memory
:Max Core in MB      =   4096.00
 MB in use           =      5.93
 MB left             =   4090.07
 MB needed           =      0.28
 Data fit in memory  = YES
Calculating RI/J V-Matrix + Cholesky decomp.... done (  0.0 sec)
Calculating Nuclear repulsion               ... done (  0.0 sec) ENN=    241.535519964181 Eh

Diagonalization of the overlap matrix:
Smallest eigenvalue                        ... 2.381e-03
Time for diagonalization                   ...    0.003 sec
Threshold for overlap eigenvalues          ... 1.000e-07
Number of eigenvalues below threshold      ... 0
Time for construction of square roots      ...    0.001 sec
Total time needed                          ...    0.005 sec

-------------------
DFT GRID GENERATION
-------------------

General Integration Accuracy     IntAcc      ... 4.388
Radial Grid Type                 RadialGrid  ... OptM3 with GC (2021)
Angular Grid (max. ang.)         AngularGrid ... 4 (Lebedev-302)
Angular grid pruning method      GridPruning ... 4 (adaptive)
Weight generation scheme         WeightScheme... mBecke (2022)
Basis function cutoff            BFCut       ... 1.0000e-11
Integration weight cutoff        WCut        ... 1.0000e-14
Partially contracted basis set               ... off
Rotationally invariant grid construction     ... off
Angular grids for H and He will be reduced by one unit

Total number of grid points                  ...    68641
Total number of batches                      ...     1080
Average number of points per batch           ...       63
Average number of grid points per atom       ...     4290

--------------------
COSX GRID GENERATION
--------------------

GRIDX 1
-------
General Integration Accuracy     IntAcc      ... 3.816
Radial Grid Type                 RadialGrid  ... OptM3 with GC (2021)
Angular Grid (max. ang.)         AngularGrid ... 1 (Lebedev-50)
Angular grid pruning method      GridPruning ... 4 (adaptive)
Weight generation scheme         WeightScheme... mBecke (2022)
Basis function cutoff            BFCut       ... 1.0000e-11
Integration weight cutoff        WCut        ... 1.0000e-14
Partially contracted basis set               ... on
Rotationally invariant grid construction     ... off
Angular grids for H and He will be reduced by one unit

Total number of grid points                  ...     8802
Total number of batches                      ...       80
Average number of points per batch           ...      110
Average number of grid points per atom       ...      550
UseSFitting                                  ... on

GRIDX 2
-------
General Integration Accuracy     IntAcc      ... 4.020
Radial Grid Type                 RadialGrid  ... OptM3 with GC (2021)
Angular Grid (max. ang.)         AngularGrid ... 2 (Lebedev-110)
Angular grid pruning method      GridPruning ... 4 (adaptive)
Weight generation scheme         WeightScheme... mBecke (2022)
Basis function cutoff            BFCut       ... 1.0000e-11
Integration weight cutoff        WCut        ... 1.0000e-14
Partially contracted basis set               ... on
Rotationally invariant grid construction     ... off
Angular grids for H and He will be reduced by one unit

Total number of grid points                  ...    18554
Total number of batches                      ...      153
Average number of points per batch           ...      121
Average number of grid points per atom       ...     1160
UseSFitting                                  ... on

GRIDX 3
-------
General Integration Accuracy     IntAcc      ... 4.338
Radial Grid Type                 RadialGrid  ... OptM3 with GC (2021)
Angular Grid (max. ang.)         AngularGrid ... 3 (Lebedev-194)
Angular grid pruning method      GridPruning ... 4 (adaptive)
Weight generation scheme         WeightScheme... mBecke (2022)
Basis function cutoff            BFCut       ... 1.0000e-11
Integration weight cutoff        WCut        ... 1.0000e-14
Partially contracted basis set               ... on
Rotationally invariant grid construction     ... off
Angular grids for H and He will be reduced by one unit

Total number of grid points                  ...    40681
Total number of batches                      ...      326
Average number of points per batch           ...      124
Average number of grid points per atom       ...     2543
UseSFitting                                  ... on
Grids setup in   0.8 sec
Initializing property integral containers    ... done (  0.0 sec)

SHARK setup successfully completed in   0.9 seconds

Maximum memory used throughout the entire STARTUP-calculation: 19.4 MB


           ************************************************************
           *        Program running with 6 parallel MPI-processes     *
           *              working on a common directory               *
           ************************************************************
-------------------------------------------------------------------------------
                                 ORCA GUESS
                   Start orbitals & Density for SCF / CASSCF
-------------------------------------------------------------------------------

------------
SCF SETTINGS
------------
Hamiltonian:
 Density Functional     Method          .... DFT(GTOs)
 Exchange Functional    Exchange        .... B88
   X-Alpha parameter    XAlpha          ....  0.666667
   Becke's b parameter  XBeta           ....  0.004200
 Correlation Functional Correlation     .... LYP
 LDA part of GGA corr.  LDAOpt          .... VWN-5
 Gradients option       PostSCFGGA      .... off
 Hybrid DFT is turned on
   Fraction HF Exchange ScalHFX         ....  0.200000
   Scaling of DF-GGA-X  ScalDFX         ....  0.720000
   Scaling of DF-GGA-C  ScalDFC         ....  0.810000
   Scaling of DF-LDA-C  ScalLDAC        ....  1.000000
   Perturbative correction              ....  0.000000
   NL short-range parameter             ....  4.800000
 RI-approximation to the Coulomb term is turned on
   Number of AuxJ basis functions       .... 404
   RIJ-COSX (HFX calculated with COS-X)).... on


General Settings:
 Integral files         IntName         .... orca
 Hartree-Fock type      HFTyp           .... RHF
 Total Charge           Charge          ....    0
 Multiplicity           Mult            ....    1
 Number of Electrons    NEL             ....   50
 Basis Dimension        Dim             ....  134
 Nuclear Repulsion      ENuc            ....    241.5355199642 Eh

Convergence Acceleration:
 AO-DIIS                CNVDIIS         .... on
   Start iteration      DIISMaxIt       ....    12
   Startup error        DIISStart       ....  0.200000
   # of expansion vecs  DIISMaxEq       ....     5
   Bias factor          DIISBfac        ....   1.050
   Max. coefficient     DIISMaxC        ....  10.000
 MO-DIIS                CNVKDIIS        .... off
 Trust-Rad. Augm. Hess. CNVTRAH         .... auto
   Auto Start mean grad. ratio tolernc. ....  1.125000
   Auto Start start iteration           ....    50
   Auto Start num. interpolation iter.  ....    10
   Max. Number of Micro iterations      ....    24
   Max. Number of Macro iterations      .... Maxiter - #DIIS iter
   Number of Davidson start vectors     ....     2
   Converg. threshold    (grad. norm)   ....   1.000e-05
   Grad. Scal. Fac. for Micro threshold ....   0.100
   Minimum threshold for Micro iter.    ....   1.000e-02
   NR start threshold (gradient norm)   ....   1.000e-04
   Initial trust radius                 ....   0.400
   Minimum AH scaling param. (alpha)    ....   1.000
   Maximum AH scaling param. (alpha)    .... 1000.000
   Quad. conv. algorithm                .... NR
   White noise on init. David. guess    .... on
   Maximum white noise                  ....   0.010
   Pseudo random numbers                .... off
   Inactive MOs                         .... canonical
   Orbital update algorithm             .... Taylor
   Preconditioner                       .... Diag
   Full preconditioner red. dimension   ....   250
 SOSCF                 CNVSOSCF           .... on
   Start iteration     SOSCFMaxIt         ....   150
   Startup grad/error  SOSCFStart         ....  0.003300
   Hessian update      SOSCFHessUp        .... L-BFGS
   Autom. constraints  SOSCFAutoConstrain .... off
 Level Shifting         CNVShift        .... on
   Level shift para.    LevelShift      ....    0.2500
   Turn off err/grad.   ShiftErr        ....    0.0010
 Zerner damping         CNVZerner       .... off
 Static damping         CNVDamp         .... on
   Fraction old density DampFac         ....    0.7000
   Max. Damping (<1)    DampMax         ....    0.9800
   Min. Damping (>=0)   DampMin         ....    0.0000
   Turn off err/grad.   DampErr         ....    0.1000

SCF Procedure:
 Maximum # iterations   MaxIter         ....   125
 SCF integral mode      SCFMode         .... Direct
   Integral package                     .... SHARK and LIBINT hybrid scheme
 Reset frequency        DirectResetFreq ....    20
 Integral Threshold     Thresh          ....  2.500e-11 Eh
 Primitive CutOff       TCut            ....  2.500e-12 Eh

Convergence Tolerance:
 Convergence Check Mode ConvCheckMode   .... Total+1el-Energy
 Convergence forced     ConvForced      .... 0
 Energy Change          TolE            ....  1.000e-08 Eh
 1-El. energy change                    ....  1.000e-05 Eh
 Orbital Gradient       TolG            ....  1.000e-05
 Orbital Rotation angle TolX            ....  1.000e-05
 DIIS Error             TolErr          ....  5.000e-07

------------------------------
INITIAL GUESS: MODEL POTENTIAL
------------------------------
Loading Hartree-Fock densities                     ... done
Calculating cut-offs                               ... done
Initializing the effective Hamiltonian             ... done
Setting up the integral package (SHARK)            ... done
Starting the Coulomb interaction                   ... done (   0.0 sec)
Making the grid                                    ... done (   0.1 sec)
Mapping shells                                     ... done
Starting the XC term evaluation                    ... done (   0.0 sec)
  promolecular density results
     # of electrons  =     49.993752705
     EX              =    -39.882419164
     EC              =     -1.649065585
     EX+EC           =    -41.531484749
Transforming the Hamiltonian                       ... done (   0.0 sec)
Diagonalizing the Hamiltonian                      ... done (   0.0 sec)
Back transforming the eigenvectors                 ... done (   0.0 sec)
Now organizing SCF variables                       ... done
                      ------------------
                      INITIAL GUESS DONE (   0.2 sec)
                      ------------------
             **** ENERGY FILE WAS UPDATED (orca.en.tmp) ****
Finished Guess after   0.3 sec
Maximum memory used throughout the entire GUESS-calculation: 8.5 MB


           ************************************************************
           *        Program running with 6 parallel MPI-processes     *
           *              working on a common directory               *
           ************************************************************

-------------------------------------------------------------------------------------------
                                      ORCA LEAN-SCF
                              memory conserving SCF solver
-------------------------------------------------------------------------------------------

----------------------------------------D-I-I-S--------------------------------------------
Iteration    Energy (Eh)           Delta-E    RMSDP     MaxDP     DIISErr   Damp  Time(sec)
-------------------------------------------------------------------------------------------
               ***  Starting incremental Fock matrix formation  ***
    1    -308.2143618386801904     0.00e+00  1.17e-02  8.89e-02  2.99e-01  0.700   0.7
    2    -308.3454500287706992    -1.31e-01  7.63e-03  5.32e-02  1.26e-01  0.700   0.5
                               ***Turning on AO-DIIS***
    3    -308.3930536556654829    -4.76e-02  2.70e-03  1.94e-02  3.84e-02  0.700   0.4
    4    -308.4221141136461597    -2.91e-02  4.11e-03  2.58e-02  1.75e-02  0.000   0.3
    5    -308.4868001955159684    -6.47e-02  9.74e-04  7.35e-03  8.74e-03  0.000   0.4
                              *** Initializing SOSCF ***
---------------------------------------S-O-S-C-F--------------------------------------
Iteration    Energy (Eh)           Delta-E    RMSDP     MaxDP     MaxGrad    Time(sec)
--------------------------------------------------------------------------------------
    6    -308.4871884920704019    -3.88e-04  3.32e-04  2.55e-03  2.22e-03     0.3
               *** Restarting incremental Fock matrix formation ***
    7    -308.4872299298509120    -4.14e-05  2.14e-04  1.74e-03  2.11e-04     0.7
    8    -308.4872305505022609    -6.21e-07  6.08e-05  6.50e-04  2.35e-04     0.6
    9    -308.4872323876073210    -1.84e-06  6.08e-05  5.48e-04  1.29e-04     0.6
   10    -308.4872321741402743     2.13e-07  3.07e-05  2.74e-04  1.38e-04     0.6
   11    -308.4872326031205034    -4.29e-07  3.75e-06  2.99e-05  3.56e-06     0.5
   12    -308.4872326039267705    -8.06e-10  1.43e-06  1.53e-05  4.08e-06     0.4
                 **** Energy Check signals convergence ****

               *****************************************************
               *                     SUCCESS                       *
               *           SCF CONVERGED AFTER  12 CYCLES          *
               *****************************************************

Recomputing exchange energy using gridx3       ... done (    1.100 sec)
Old exchange energy                            :     -8.132885971 Eh
New exchange energy                            :     -8.132899492 Eh
Exchange energy change after final integration :     -0.000013520 Eh
Total energy after final integration           :   -308.487246127 Eh
             **** ENERGY FILE WAS UPDATED (orca.en.tmp) ****

----------------
TOTAL SCF ENERGY
----------------

Total Energy       :       -308.48724612745696 Eh           -8394.36473 eV

Components:
Nuclear Repulsion  :        241.53551996418076 Eh            6572.51564 eV
Electronic Energy  :       -550.02275257126678 Eh          -14966.88000 eV
One Electron Energy:       -897.69779423916259 Eh          -24427.59886 eV
Two Electron Energy:        347.67504166789581 Eh            9460.71886 eV

Virial components:
Potential Energy   :       -614.07238175447947 Eh          -16709.75902 eV
Kinetic Energy     :        305.58513562702257 Eh            8315.39429 eV
Virial Ratio       :          2.00949689681234

DFT components:
N(Alpha)           :       25.000015595608 electrons
N(Beta)            :       25.000015595608 electrons
N(Total)           :       50.000031191217 electrons
E(X)               :      -32.299559031262 Eh       
E(C)               :       -1.957803876085 Eh       
E(XC)              :      -34.257362907347 Eh       

---------------
SCF CONVERGENCE
---------------

  Last Energy change         ...    8.0627e-10  Tolerance :   1.0000e-08
  Last MAX-Density change    ...    1.5302e-05  Tolerance :   1.0000e-07
  Last RMS-Density change    ...    1.4348e-06  Tolerance :   5.0000e-09
  Last DIIS Error            ...    2.2159e-03  Tolerance :   5.0000e-07
  Last Orbital Gradient      ...    4.0847e-06  Tolerance :   1.0000e-05
  Last Orbital Rotation      ...    4.7900e-06  Tolerance :   1.0000e-05


----------------
ORBITAL ENERGIES
----------------

  NO   OCC          E(Eh)            E(eV) 
   0   2.0000     -19.137196      -520.7496 
   1   2.0000     -19.095150      -519.6054 
   2   2.0000     -10.283241      -279.8212 
   3   2.0000     -10.201264      -277.5905 
   4   2.0000     -10.200115      -277.5592 
   5   2.0000     -10.191410      -277.3224 
   6   2.0000      -1.041723       -28.3467 
   7   2.0000      -0.953271       -25.9398 
   8   2.0000      -0.789863       -21.4933 
   9   2.0000      -0.730864       -19.8878 
  10   2.0000      -0.645084       -17.5536 
  11   2.0000      -0.532780       -14.4977 
  12   2.0000      -0.490931       -13.3589 
  13   2.0000      -0.475613       -12.9421 
  14   2.0000      -0.471078       -12.8187 
  15   2.0000      -0.451482       -12.2855 
  16   2.0000      -0.427338       -11.6285 
  17   2.0000      -0.408280       -11.1099 
  18   2.0000      -0.392701       -10.6859 
  19   2.0000      -0.377744       -10.2789 
  20   2.0000      -0.362178        -9.8554 
  21   2.0000      -0.355078        -9.6622 
  22   2.0000      -0.344497        -9.3742 
  23   2.0000      -0.272069        -7.4034 
  24   2.0000      -0.259460        -7.0603 
  25   0.0000      -0.029494        -0.8026 
  26   0.0000       0.045295         1.2325 
  27   0.0000       0.079869         2.1734 
  28   0.0000       0.088342         2.4039 
  29   0.0000       0.095251         2.5919 
  30   0.0000       0.115908         3.1540 
  31   0.0000       0.128075         3.4851 
  32   0.0000       0.134093         3.6489 
  33   0.0000       0.161137         4.3848 
  34   0.0000       0.174386         4.7453 
  35   0.0000       0.186759         5.0820 
*Only the first 10 virtual orbitals were printed.

                    ********************************
                    * MULLIKEN POPULATION ANALYSIS *
                    ********************************

-----------------------
MULLIKEN ATOMIC CHARGES
-----------------------
   0 C :   -0.017766
   1 C :    0.041724
   2 C :   -0.017481
   3 C :    0.032924
   4 O :   -0.237004
   5 H :    0.029045
   6 H :    0.017334
   7 H :    0.030554
   8 H :    0.024077
   9 H :    0.040987
  10 H :    0.022130
  11 H :    0.023223
  12 H :    0.009854
  13 H :    0.153725
  14 O :   -0.294752
  15 H :    0.141424
Sum of atomic charges:   -0.0000000

--------------------------------
MULLIKEN REDUCED ORBITAL CHARGES
--------------------------------
  0 C s       :     3.015355  s :     3.015355
      pz      :     0.976019  p :     2.973505
      px      :     0.984429
      py      :     1.013057
      dz2     :     0.004135  d :     0.028907
      dxz     :     0.005813
      dyz     :     0.008609
      dx2y2   :     0.007303
      dxy     :     0.003046

  1 C s       :     2.994655  s :     2.994655
      pz      :     1.012470  p :     2.930586
      px      :     0.943882
      py      :     0.974234
      dz2     :     0.005076  d :     0.033035
      dxz     :     0.006691
      dyz     :     0.008491
      dx2y2   :     0.008553
      dxy     :     0.004225

  2 C s       :     3.196516  s :     3.196516
      pz      :     0.814125  p :     2.726306
      px      :     0.950708
      py      :     0.961472
      dz2     :     0.006590  d :     0.094659
      dxz     :     0.013095
      dyz     :     0.016124
      dx2y2   :     0.036160
      dxy     :     0.022690

  3 C s       :     2.948408  s :     2.948408
      pz      :     1.003262  p :     2.994222
      px      :     1.019541
      py      :     0.971419
      dz2     :     0.001866  d :     0.024445
      dxz     :     0.006152
      dyz     :     0.007105
      dx2y2   :     0.006452
      dxy     :     0.002870

  4 O s       :     3.764679  s :     3.764679
      pz      :     1.440554  p :     4.455211
      px      :     1.524420
      py      :     1.490237
      dz2     :     0.001869  d :     0.017114
      dxz     :     0.002199
      dyz     :     0.003057
      dx2y2   :     0.004234
      dxy     :     0.005755

  5 H s       :     0.947956  s :     0.947956
      pz      :     0.005527  p :     0.022999
      px      :     0.012446
      py      :     0.005027

  6 H s       :     0.959631  s :     0.959631
      pz      :     0.009812  p :     0.023035
      px      :     0.004747
      py      :     0.008476

  7 H s       :     0.946541  s :     0.946541
      pz      :     0.005623  p :     0.022905
      px      :     0.005308
      py      :     0.011974

  8 H s       :     0.952254  s :     0.952254
      pz      :     0.008533  p :     0.023669
      px      :     0.009371
      py      :     0.005764

  9 H s       :     0.934796  s :     0.934796
      pz      :     0.009521  p :     0.024217
      px      :     0.005346
      py      :     0.009349

 10 H s       :     0.953159  s :     0.953159
      pz      :     0.006735  p :     0.024711
      px      :     0.013824
      py      :     0.004153

 11 H s       :     0.954660  s :     0.954660
      pz      :     0.009459  p :     0.022117
      px      :     0.003817
      py      :     0.008840

 12 H s       :     0.967855  s :     0.967855
      pz      :     0.005652  p :     0.022291
      px      :     0.005155
      py      :     0.011483

 13 H s       :     0.773615  s :     0.773615
      pz      :     0.025432  p :     0.072661
      px      :     0.028240
      py      :     0.018989

 14 O s       :     3.682725  s :     3.682725
      pz      :     1.199873  p :     4.601697
      px      :     1.682931
      py      :     1.718892
      dz2     :     0.000790  d :     0.010330
      dxz     :     0.003073
      dyz     :     0.002897
      dx2y2   :     0.001332
      dxy     :     0.002238

 15 H s       :     0.787649  s :     0.787649
      pz      :     0.030912  p :     0.070927
      px      :     0.018732
      py      :     0.021283



                     *******************************
                     * LOEWDIN POPULATION ANALYSIS *
                     *******************************

----------------------
LOEWDIN ATOMIC CHARGES
----------------------
   0 C :   -0.043389
   1 C :   -0.055241
   2 C :    0.102595
   3 C :   -0.081942
   4 O :   -0.148706
   5 H :    0.030518
   6 H :    0.022770
   7 H :    0.029572
   8 H :    0.036086
   9 H :    0.049502
  10 H :    0.030518
  11 H :    0.036233
  12 H :    0.027692
  13 H :    0.046494
  14 O :   -0.152217
  15 H :    0.069519

-------------------------------
LOEWDIN REDUCED ORBITAL CHARGES
-------------------------------
  0 C s       :     2.841782  s :     2.841782
      pz      :     1.034077  p :     3.130251
      px      :     1.034665
      py      :     1.061509
      dz2     :     0.009514  d :     0.071356
      dxz     :     0.015399
      dyz     :     0.020989
      dx2y2   :     0.018137
      dxy     :     0.007318

  1 C s       :     2.851739  s :     2.851739
      pz      :     1.043434  p :     3.119773
      px      :     1.021709
      py      :     1.054630
      dz2     :     0.011170  d :     0.083730
      dxz     :     0.018134
      dyz     :     0.021641
      dx2y2   :     0.022156
      dxy     :     0.010628

  2 C s       :     2.892005  s :     2.892005
      pz      :     0.793067  p :     2.794602
      px      :     1.000713
      py      :     1.000821
      dz2     :     0.014955  d :     0.210799
      dxz     :     0.025906
      dyz     :     0.032051
      dx2y2   :     0.084852
      dxy     :     0.053036

  3 C s       :     2.850299  s :     2.850299
      pz      :     1.059314  p :     3.165367
      px      :     1.074276
      py      :     1.031776
      dz2     :     0.004240  d :     0.066277
      dxz     :     0.016583
      dyz     :     0.019725
      dx2y2   :     0.017890
      dxy     :     0.007838

  4 O s       :     3.542376  s :     3.542376
      pz      :     1.434270  p :     4.576315
      px      :     1.575942
      py      :     1.566102
      dz2     :     0.004043  d :     0.030016
      dxz     :     0.002868
      dyz     :     0.003857
      dx2y2   :     0.006986
      dxy     :     0.012262

  5 H s       :     0.905203  s :     0.905203
      pz      :     0.015556  p :     0.064279
      px      :     0.036022
      py      :     0.012702

  6 H s       :     0.913171  s :     0.913171
      pz      :     0.028236  p :     0.064059
      px      :     0.012288
      py      :     0.023534

  7 H s       :     0.905984  s :     0.905984
      pz      :     0.015727  p :     0.064445
      px      :     0.014615
      py      :     0.034102

  8 H s       :     0.897826  s :     0.897826
      pz      :     0.022777  p :     0.066089
      px      :     0.026913
      py      :     0.016399

  9 H s       :     0.884337  s :     0.884337
      pz      :     0.026784  p :     0.066162
      px      :     0.013063
      py      :     0.026314

 10 H s       :     0.895526  s :     0.895526
      pz      :     0.019734  p :     0.073956
      px      :     0.041900
      py      :     0.012322

 11 H s       :     0.898005  s :     0.898005
      pz      :     0.027974  p :     0.065762
      px      :     0.012052
      py      :     0.025736

 12 H s       :     0.906857  s :     0.906857
      pz      :     0.016258  p :     0.065451
      px      :     0.016512
      py      :     0.032681

 13 H s       :     0.759422  s :     0.759422
      pz      :     0.056555  p :     0.194084
      px      :     0.080727
      py      :     0.056802

 14 O s       :     3.438814  s :     3.438814
      pz      :     1.277616  p :     4.694507
      px      :     1.686359
      py      :     1.730532
      dz2     :     0.002647  d :     0.018896
      dxz     :     0.006339
      dyz     :     0.005980
      dx2y2   :     0.000963
      dxy     :     0.002967

 15 H s       :     0.754875  s :     0.754875
      pz      :     0.070236  p :     0.175606
      px      :     0.048064
      py      :     0.057306



                      *****************************
                      * MAYER POPULATION ANALYSIS *
                      *****************************

  NA   - Mulliken gross atomic population
  ZA   - Total nuclear charge
  QA   - Mulliken gross atomic charge
  VA   - Mayer's total valence
  BVA  - Mayer's bonded valence
  FA   - Mayer's free valence

  ATOM       NA         ZA         QA         VA         BVA        FA
  0 C      6.0178     6.0000    -0.0178     4.0414     4.0414     0.0000
  1 C      5.9583     6.0000     0.0417     3.9402     3.9402     0.0000
  2 C      6.0175     6.0000    -0.0175     4.2301     4.2301    -0.0000
  3 C      5.9671     6.0000     0.0329     3.8148     3.8148     0.0000
  4 O      8.2370     8.0000    -0.2370     2.2412     2.2412     0.0000
  5 H      0.9710     1.0000     0.0290     0.9826     0.9826    -0.0000
  6 H      0.9827     1.0000     0.0173     0.9895     0.9895    -0.0000
  7 H      0.9694     1.0000     0.0306     0.9892     0.9892    -0.0000
  8 H      0.9759     1.0000     0.0241     0.9977     0.9977    -0.0000
  9 H      0.9590     1.0000     0.0410     0.9960     0.9960     0.0000
 10 H      0.9779     1.0000     0.0221     1.1098     1.1098     0.0000
 11 H      0.9768     1.0000     0.0232     0.9996     0.9996    -0.0000
 12 H      0.9901     1.0000     0.0099     0.9833     0.9833    -0.0000
 13 H      0.8463     1.0000     0.1537     1.0731     1.0731    -0.0000
 14 O      8.2948     8.0000    -0.2948     2.0941     2.0941    -0.0000
 15 H      0.8586     1.0000     0.1414     1.0149     1.0149    -0.0000

  Mayer bond orders larger than 0.100000
B(  0-C ,  1-C ) :   1.0939 B(  0-C ,  5-H ) :   0.9676 B(  0-C ,  6-H ) :   0.9709 
B(  0-C ,  7-H ) :   0.9692 B(  1-C ,  2-C ) :   0.9935 B(  1-C , 11-H ) :   0.9254 
B(  1-C , 12-H ) :   0.9365 B(  2-C ,  3-C ) :   1.0394 B(  2-C ,  4-O ) :   2.0390 
B(  3-C ,  8-H ) :   0.9457 B(  3-C ,  9-H ) :   0.9333 B(  3-C , 10-H ) :   0.9221 
B(  4-O , 13-H ) :   0.1093 B( 10-H , 14-O ) :   0.1390 B( 13-H , 14-O ) :   0.9509 
B( 14-O , 15-H ) :   1.0066 

-------
TIMINGS
-------

Total SCF time: 0 days 0 hours 0 min 7 sec 

Total time                  ....       7.730 sec
Sum of individual times     ....       7.282 sec  ( 94.2%)

SCF preparation             ....       0.172 sec  (  2.2%)
Fock matrix formation       ....       6.904 sec  ( 89.3%)
  Startup                   ....       0.004 sec  (  0.1% of F)
  Split-RI-J                ....       0.589 sec  (  8.5% of F)
  Chain of spheres X        ....       5.225 sec  ( 75.7% of F)
  XC integration            ....       1.373 sec  ( 19.9% of F)
    XC Preparation          ....       0.000 sec  (  0.0% of XC)
    Basis function eval.    ....       0.386 sec  ( 28.1% of XC)
    Density eval.           ....       0.200 sec  ( 14.6% of XC)
    XC-Functional eval.     ....       0.079 sec  (  5.8% of XC)
    XC-Potential eval.      ....       0.208 sec  ( 15.1% of XC)
Diagonalization             ....       0.000 sec  (  0.0%)
Density matrix formation    ....       0.028 sec  (  0.4%)
Total Energy calculation    ....       0.014 sec  (  0.2%)
Population analysis         ....       0.012 sec  (  0.2%)
Orbital Transformation      ....       0.017 sec  (  0.2%)
Orbital Orthonormalization  ....       0.000 sec  (  0.0%)
DIIS solution               ....       0.078 sec  (  1.0%)
SOSCF solution              ....       0.057 sec  (  0.7%)
Finished LeanSCF after   7.7 sec

Maximum memory used throughout the entire LEANSCF-calculation: 11.7 MB


-------------------------------------------------------------------------------
                          DFT DISPERSION CORRECTION                            
                                                                               
                              DFTD3 V3.1  Rev 1                                
                          USING Becke-Johnson damping                          
-------------------------------------------------------------------------------
The B3LYP functional is recognized
Active option DFTDOPT                   ...         4   

molecular C6(AA) [au] = 1770.687085 


            DFT-D V3
 parameters
 s6 scaling factor         :     1.0000 
 a1 scaling factor         :     0.3981 
 s8 scaling factor         :     1.9889 
 a2 scaling factor         :     4.4211 
 ad hoc parameters k1-k3   :    16.0000     1.3333    -4.0000 

 Edisp/kcal,au: -11.365727833587  -0.018112438283 
 E6   /kcal   :  -5.656533359 
 E8   /kcal   :  -5.709194475 
 % E8         :  50.231666271 

-------------------------   ----------------
Dispersion correction           -0.018112438
-------------------------   ----------------


-------------------------   --------------------
FINAL SINGLE POINT ENERGY      -308.505358565740
-------------------------   --------------------



           ************************************************************
           *        Program running with 6 parallel MPI-processes     *
           *              working on a common directory               *
           ************************************************************
------------------------------------------------------------------------------
                         ORCA SCF GRADIENT CALCULATION
------------------------------------------------------------------------------

Nuc. rep. gradient        (SHARK) ... done (  0.0 sec)
HCore & Overlap gradient  (SHARK) ... done (  0.0 sec)
Split-RIJ-J gradient      (SHARK) ... done (  0.2 sec)
done (  3.8 sec)
XC gradient                       ... done (  0.9 sec)
Dispersion correction             ... done (  0.0 sec)

-------------------
DISPERSION GRADIENT
-------------------

   1   C   :    0.000450518    0.000208142    0.000061159
   2   C   :    0.000221225    0.000127509   -0.000206176
   3   C   :   -0.000027896   -0.000061913   -0.000204757
   4   C   :   -0.000159670   -0.000458575    0.000035485
   5   O   :   -0.000297451    0.000307675   -0.000189696
   6   H   :    0.000207131    0.000068243    0.000035965
   7   H   :    0.000278479    0.000050167    0.000170541
   8   H   :    0.000202620    0.000188847    0.000120005
   9   H   :   -0.000061484   -0.000288831    0.000151526
  10   H   :   -0.000088906   -0.000273840   -0.000020446
  11   H   :   -0.000091569   -0.000174454    0.000070853
  12   H   :    0.000066614    0.000096040   -0.000208684
  13   H   :    0.000157887   -0.000069371   -0.000202143
  14   H   :   -0.000243664    0.000111496    0.000058002
  15   O   :   -0.000416048    0.000096667    0.000176169
  16   H   :   -0.000197787    0.000072196    0.000152197

Difference to translation invariance:
           :   -0.0000000000    0.0000000000   -0.0000000000

Difference to rotation invariance:
           :   -0.0000000000   -0.0000000000   -0.0000000000

Norm of the Dispersion gradient    ...    0.0013530834
RMS gradient                       ...    0.0001953008
MAX gradient                       ...    0.0004585748

------------------
CARTESIAN GRADIENT
------------------

   1   C   :    0.000087007   -0.000091706    0.000052210
   2   C   :   -0.000157024    0.000046529   -0.000036993
   3   C   :    0.000072312   -0.000058770   -0.000016515
   4   C   :    0.000017291   -0.000081185   -0.000166802
   5   O   :   -0.000050742   -0.000200907   -0.000126784
   6   H   :    0.000005248    0.000040581    0.000044528
   7   H   :   -0.000042967   -0.000034679    0.000031448
   8   H   :    0.000036656    0.000089170    0.000020027
   9   H   :   -0.000015489    0.000022561    0.000042541
  10   H   :   -0.000028765   -0.000007186   -0.000019324
  11   H   :    0.000080481    0.000090093    0.000061893
  12   H   :    0.000050516    0.000050298   -0.000031586
  13   H   :    0.000026794   -0.000013610    0.000028824
  14   H   :    0.000028702    0.000182334    0.000172418
  15   O   :   -0.000129871   -0.000056643   -0.000079853
  16   H   :    0.000019851    0.000023119    0.000023970

Difference to translation invariance:
           :   -0.0000000001    0.0000000000   -0.0000000000

Difference to rotation invariance:
           :    0.0000223068   -0.0004169121   -0.0003201484

Norm of the Cartesian gradient     ...    0.0005373723
RMS gradient                       ...    0.0000775630
MAX gradient                       ...    0.0002009067

-------
TIMINGS
-------

Total SCF gradient time     ....        5.009 sec

Densities                   ....       0.001 sec  (  0.0%)
One electron gradient       ....       0.043 sec  (  0.9%)
RI-J Coulomb gradient       ....       0.248 sec  (  5.0%)
COSX gradient               ....       3.783 sec  ( 75.5%)
XC gradient                 ....       0.883 sec  ( 17.6%)

Maximum memory used throughout the entire SCFGRAD-calculation: 28.4 MB


           ************************************************************
           *        Program running with 6 parallel MPI-processes     *
           *              working on a common directory               *
           ************************************************************

------------------------------------------------------------------------------
                              ORCA PROPERTY CALCULATIONS
------------------------------------------------------------------------------

GBWName                                 ... orca.gbw
Number of atoms                         ...     16
Number of basis functions               ...    134
Max core memory                         ...   4096 MB

Electric properties:
Dipole moment                           ... YES
Quadrupole moment                       ...  NO
Static polarizability (Dipole/Dipole)   ...  NO
Static polarizability (Dipole/Quad.)    ...  NO
Static polarizability (Quad./Quad.)     ...  NO
Static polarizability (Velocity)        ...  NO
Static hyperpolarizability              ...  NO

Atomic electric properties:
Dipole moment                           ...  NO
Quadrupole moment                       ...  NO
Static polarizability                   ...  NO

Choice of electric origin               ... Center of mass
Position of electric origin             ...    -0.194278     0.055739     0.068083

General magnetic properties:
Magnetizability                         ...  NO

EPR properties:
g-Tensor (aka g-matrix)                 ...  NO
Zero-Field splitting spin-orbit         ...  NO
Zero-field splitting spin-spin          ...  NO
Hyperfine couplings                     ...  NO (   0 nuclei)
Quadrupole couplings                    ...  NO (   0 nuclei)
Contact density                         ...  NO (   0 nuclei)

NMR properties:
Chemical shifts                         ...  NO (   0 nuclei)
Spin-rotation constants                 ...  NO (   0 nuclei)
Spin-spin couplings                     ...  NO (   0 nuclei,    0 pairs)

Choice of magnetic origin               ... GIAO
Position of magnetic origin             ...     0.000000     0.000000     0.000000

Properties with geometric perturbations:
SCF Hessian                             ...  NO
IR spectrum                             ...  NO
VCD spectrum                            ...  NO
X-ray spectroscopy properties:
SCF XES/XAS/RIXS spectra                ...  NO

SCF SOC stabilization energy            ...  NO
Diagonal Born-Oppenheimer correction    ...  NO

-------------
DIPOLE MOMENT
-------------

Method             : SCF
Type of density    : Electron Density
Multiplicity       :   1
Irrep              :   0
Energy             :  -308.4872461274569559 Eh
Basis              : AO
                                X                 Y                 Z
Electronic contribution:     -4.263908075       2.030380638      -1.397929235
Nuclear contribution   :      5.782205632      -2.332330744       1.515930701
                        -----------------------------------------
Total Dipole Moment    :      1.518297557      -0.301950106       0.118001466
                        -----------------------------------------
Magnitude (a.u.)       :      1.552522362
Magnitude (Debye)      :      3.946198235



--------------------
Rotational spectrum 
--------------------
 
Rotational constants in cm-1:             0.204367             0.049142             0.045690 
Rotational constants in MHz :          6126.783193          1473.247551          1369.745574 

Dipole components along the rotational axes: 
x,y,z [a.u.] :    -1.423059     0.447533    -0.430051 
x,y,z [Debye]:    -3.617128     1.137539    -1.093102 

 

Dipole moment calculation done in   0.0 sec 

Maximum memory used throughout the entire PROP-calculation: 6.6 MB

--------------------------------
SUGGESTED CITATIONS FOR THIS RUN
--------------------------------

Below you find a list of papers that are relevant to this ORCA run
We neither can nor want to force you to cite these papers, but we appreciate if you do
You receive ORCA, which is the product of decades of hard work by many enthusiastic individuals, for free
The only thing we kindly ask in return is that you cite our papers,
We deeply appreciate it, if you show your appreciation for ORCA by not just citing the generic ORCA reference.

Please note that relegating all ORCA citations to the supporting information does *not* help us.
SI sections are not indexed - citations you put there will not count into any citation statistics
But we need these citations in order to attract the funding resources that allow us to do what we are doing

Therefore, if you are a happy ORCA user, please consider citing a few of the papers listed below in the main body of your paper

In addition to the list printed below, the program has created the file orca.bibtex that contains the list in bibtex format
You can import this file easily into all common literature databanks and citation aid programs


List of essential papers. We consider these as the minimum necessary citations

  1. Neese, F.
     Software update: the ORCA program system, version 6.0
     WIRES Comput. Molec. Sci. 2025 15(1), e70019
     doi.org/10.1002/wcms.7019

List of papers to cite with high priority. The work reported in these papers was absolutely
necessary for this run to complete.
Our perspective: the developers of density functionals and basis sets usually get cited in chemistry papers
Good! But without the algorithms to do something with them, the functionals or basis sets would not do anything.
Hence, in our opinion, the algorithm design and method developments papers are equally worthy of getting cited

  1. Neese, F.
     An improvement of the resolution of the identity approximation for the formation of the Coulomb matrix
     J. Comp. Chem. 2003 24(14), 1740-1747
     doi.org/10.1002/jcc.10318
  2. Neese, F.; Wennmohs, F.; Hansen, A.; Becker, U.
     Efficient, approximate and parallel Hartree-Fock and hybrid DFT calculations. A 'chain-of-spheres' algorithm for the Hartree-Fock exchange
     Chem. Phys. 2009 356(1-3), 98-109
     doi.org/10.1016/j.chemphys.2008.10.036
  3. Grimme, S.; Antony, J.; Ehrlich, S.; Krieg, H.
     A consistent and accurate ab initio parametrization of density functional dispersion correction (DFT-D) for the 94 elements H-Pu
     J. Chem. Phys. 2010 132 , 154104
     doi.org/10.1063/1.3382344
  4. Grimme, S.; Ehrlich, S.; Goerigk, L.
     Effect of the damping function in dispersion corrected density functional theory
     J. Comput. Chem. 2011 32(7), 1456-1465
     doi.org/10.1002/jcc.21759
  5. Helmich-Paris, B.; de Souza, B.; Neese, F.; Izsák, R.
     An improved chain of spheres for exchange algorithm
     J. Chem. Phys. 2021 155(10), 104109
     doi.org/10.1063/5.0058766
  6. Neese, F.
     The SHARK Integral Generation and Digestion System
     J. Comp. Chem. 2022 44(3), 381
     doi.org/10.1002/jcc.26942

List of suggested additional citations. These are papers that are important in the 'surrounding' of 
of this run, or papers that preceded the highly important papers. If you like your results we are grateful for a citation.

  1. Izsak, R.; Neese, F.
     An overlap fitted chain of spheres exchange method
     J. Chem. Phys. 2011 135 , 144105
     doi.org/10.1063/1.3646921
  2. Izsak, R.; Hansen, A.; Neese, F.
     The resolution of identity and chain of spheres approximations for the LPNO-CCSD singles Fock term
     Molec. Phys. 2012 110 , 2413-2417
     doi.org/10.1080/00268976.2012.687466
  3. Neese, F.
     The ORCA program system
     WIRES Comput. Molec. Sci. 2012 2(1), 73-78
     doi.org/10.1002/wcms.81
  4. Izsak, R.; Neese, F.; Klopper, W.
     Robust fitting techniques in the chain of spheres approximation to the Fock exchange: The role of the complementary space
     J. Chem. Phys. 2013 139 , 
     doi.org/10.1063/1.4819264
  5. Neese, F.
     Software update: the ORCA program system, version 4.0
     WIRES Comput. Molec. Sci. 2018 8(1), 1-6
     doi.org/10.1002/wcms.1327
  6. Neese, F.; Wennmohs, F.; Becker, U.; Riplinger, C.
     The ORCA quantum chemistry program package
     J. Chem. Phys. 2020 152(22), 224108
     doi.org/10.1063/5.0004608
  7. Neese, F.
     Software update: The ORCA program system—Version 5.0
     WIRES Comput. Molec. Sci. 2022 12(1), e1606
     doi.org/10.1002/wcms.1606

List of optional additional citations

  1. Neese, F.
     Approximate second-order SCF convergence for spin unrestricted wavefunctions
     Chem. Phys. Lett. 2000 325(1-3), 93-98
     doi.org/10.1016/s0009-2614(00)00662-x

Timings for individual modules:

Sum of individual times          ...       16.166 sec (=   0.269 min)
Startup calculation              ...        1.375 sec (=   0.023 min)   8.5 %
SCF iterations                   ...        8.872 sec (=   0.148 min)  54.9 %
Property calculations            ...        0.425 sec (=   0.007 min)   2.6 %
SCF Gradient evaluation          ...        5.495 sec (=   0.092 min)  34.0 %
                             ****ORCA TERMINATED NORMALLY****
TOTAL RUN TIME: 0 days 0 hours 0 minutes 16 seconds 745 msec
