
                                 *****************
                                 * O   R   C   A *
                                 *****************

                                            #,                                       
                                            ###                                      
                                            ####                                     
                                            #####                                    
                                            ######                                   
                                           ########,                                 
                                     ,,################,,,,,                         
                               ,,#################################,,                 
                          ,,##########################################,,             
                       ,#########################################, ''#####,          
                    ,#############################################,,   '####,        
                  ,##################################################,,,,####,       
                ,###########''''           ''''###############################       
              ,#####''   ,,,,##########,,,,          '''####'''          '####       
            ,##' ,,,,###########################,,,                        '##       
           ' ,,###''''                  '''############,,,                           
         ,,##''                                '''############,,,,        ,,,,,,###''
      ,#''                                            '''#######################'''  
     '                                                          ''''####''''         
             ,#######,   #######,   ,#######,      ##                                
            ,#'     '#,  ##    ##  ,#'     '#,    #''#        ,####,    ,#,          
            ##       ##  ##   ,#'  ##            #'  '#       #'       ,# #          
            ##       ##  #######   ##           ,######,      #####,      #          
            '#,     ,#'  ##    ##  '#,     ,#' ,#      #,     #,   #      #          
             '#######'   ##     ##  '#######'  #'      '#     '####' #    #          



                #########################################################
                #                        -***-                          #
                #          Department of theory and spectroscopy        #
                #                                                       #
                #                      Frank Neese                      #
                #                                                       #
                #     Directorship, Architecture, Infrastructure        #
                #                    SHARK, DRIVERS                     #
                #        Core code/Algorithms in most modules           #
                #                                                       #
                #        Max Planck Institute fuer Kohlenforschung      #
                #                Kaiser Wilhelm Platz 1                 #
                #                 D-45470 Muelheim/Ruhr                 #
                #                      Germany                          #
                #                                                       #
                #                  All rights reserved                  #
                #                        -***-                          #
                #########################################################


                         Program Version 6.1.0  -  RELEASE   -
                                (GIT: $679e74b$)
                          ($2025-06-10 18:02:51 +0200$)


 With contributions from (in alphabetic order):
[Max-Planck-Institut fuer Kohlenforschung]                               
  Daniel Aravena         : Magnetic Suceptibility                        
  Michael Atanasov       : Ab Initio Ligand Field Theory (pilot matlab implementation)
  Alexander A. Auer      : GIAO ZORA, VPT2 properties, NMR spectrum      
  Ute Becker             : All parallelization in ORCA, NUMFREQ, NUMCALC 
  Giovanni Bistoni       : ED, misc. LED, open-shell LED, HFLD           
  Dmytro Bykov           : pre 5.0 version of the SCF Hessian            
  Marcos Casanova-Páez   : Triplet and SCS-CIS(D). UHF-(DLPNO)-IP/EA/STEOM-CCSD. UHF-CVS-IP/STEOM-CCSD   
  Vijay G. Chilkuri      : MRCI spin determinant printing, contributions to CSF-ICE 
  Pauline Colinet        : FMM embedding                                 
  Dipayan Datta          : RHF DLPNO-CCSD density                        
  Achintya Kumar Dutta   : EOM-CC, STEOM-CC                              
  Nicolas Foglia         : Exact transition moments, OPA infrastructure, MCD improvements    
  Dmitry Ganyushin       : Spin-Orbit,Spin-Spin,Magnetic field MRCI      
  Miquel Garcia-Rates    : C-PCM and meta-GGA Hessian, CCSD/C-PCM, Gaussian charge scheme 
  Tiago L. C. Gouveia    : GS-ROHF, GS-ROCIS                             
  Yang Guo               : DLPNO-NEVPT2, F12-NEVPT2, CIM, IAO-localization        
  Andreas Hansen         : Spin unrestricted coupled pair/coupled cluster methods 
  Ingolf Harden          : AUTO-CI MPn and infrastructure                
  Benjamin Helmich-Paris : MC-RPA, TRAH-(SCF,CASSCF), AVAS, COSX integrals, SCF dyn. polar., MC-PDFT, srDFT 
  Lee Huntington         : MR-EOM, pCC                                   
  Robert Izsak           : Overlap fitted RIJCOSX, COSX-SCS-MP3, EOM     
  Riya Kayal             : Wick's Theorem for AUTO-CI, AUTO-CI UHF-CCSDT 
  Emily Kempfer          : AUTO-CI RHF CISDT and CCSDT, approximate NEVPT4
  Christian Kollmar      : KDIIS, OOCD, Brueckner-CCSD(T), CCSD density, CASPT2, CASPT2-K, improved NEVPT2 
  Axel Koslowski         : Symmetry handling                             
  Simone Kossmann        : meta-GGA functionals, TD-DFT gradient, OOMP2, (MP2 Hessian; deprecated post 5.0) 
  Lucas Lang             : DCDCAS, Hyperfine gauge corrections, ICE-SOC+SSC
  Marvin Lechner         : AUTO-CI (C++ implementation), FIC-MRCC        
  Spencer Leger          : CASSCF response                               
  Dagmar Lenk            : GEPOL surface, SMD, ORCA-2-JSON               
  Dimitrios Liakos       : Extrapolation schemes; Compound Job, Property file
  Dimitrios Manganas     : Further ROCIS development; embedding schemes. LFT, Crystal Embedding 
  Dimitrios Pantazis     : SARC Basis sets                               
  Anastasios Papadopoulos: AUTO-CI, single reference methods and gradients 
  Taras Petrenko         : pre 6.0 DFT Hessian and TD-DFT gradient,  ECA, NRVS 
  Petra Pikulova         : Analytic Raman intensities                    
  Peter Pinski           : DLPNO-MP2, DLPNO-MP2 Gradient                 
  Shashank Vittal Rao    : ES-AILFT, MagRelax                            
  Christoph Reimann      : Effective Core Potentials                     
  Marius Retegan         : Local ZFS, SOC                                
  Christoph Riplinger    : Optimizer, TS searches, QM/MM, DLPNO-CCSD(T), (RO)-DLPNO pert. Triples 
  Michael Roemelt        : Original ROCIS implementation, recursive CI coupling coefficients
  Masaaki Saitow         : Open-shell DLPNO-CCSD energy and density      
  Barbara Sandhoefer     : DKH picture change effects                    
  Yorick L. A. Schmerwitz: GMF and freeze-and-release deltaSCF, NEB S-IDPP initial path                    
  Kantharuban Sivalingam : CASSCF convergence/infrastructure, NEVPT2, NEVPT3, NEVPT4(SD), FIC-MRCI and CEPA variants
  Bernardo de Souza      : ESD, SOC TD-DFT                               
  Georgi L. Stoychev     : AutoAux, RI-MP2 NMR, DLPNO-MP2 response, X2C  
  Van Anh Tran           : RI-MP2 g-tensors                              
  Willem Van den Heuvel  : Paramagnetic NMR                              
  Zikuan Wang            : NOTCH, Electric field optimization            
  Frank Wennmohs         : Technical directorship and infrastructure     
  Hang Xu                : AUTO-CI-Response properties                   
                                                                         
[FACCTs GmbH]                                                            
  Markus Bursch, Nicolas Foglia, Miquel Garcia-Rates, Ingolf Harden, Hagen Neugebauer, Anastasios Papadopoulos, 
  Christoph Riplinger, Bernardo de Souza, Georgi L. Stoychev                                                    
                                                                 
  APM, various basis sets, CI-OPT, improved COSX, DLPNO-Multilevel,           
  DOCKER, DRACO, updates on ESD, Fragmentator, GOAT, IRC, LR-CPCM, L-BFGS, MBIS, meta-GGA TD-DFT gradient, ML-optimized integration grids, 
  MM, NACMEs, nearIR, NEB, NEB-TS, NL-DFT gradient (VV10), 2- and 3-layer-ONIOM, interface openCOSMO-RS, QMMM,   
  Crystal-QMMM, RESP, rigid body optimization, SF, symmetry and pop. for TD-DFT, various functionals, SOLVATOR                                   
                                                                         
[Other institutions]                                                     
  V. Asgeirsson          : NEB                                           
  Christoph Bannwarth    : sTDA-DFT, sTD-DFT, PBEh-3c, B97-3c, D3        
  Giovanni Bistoni       : ETS/NOCV, ADLD/ADEX, COVALED                  
  Martin Brehm           : Molecular dynamics                            
  Ronald Cardenas        : ETS/NOCV                                      
  Martina Colucci        : COVALED                                       
  Sebastian Ehlert       : rSCAN, r2SCAN, r2SCAN-3c, D4, dhf basis sets  
  Marvin Friede          : D4 for Fr, Ra, Ac-Lr                          
  Lars Goerigk           : TD-DFT with DH, B97 family of functionals     
  Stefan Grimme          : VdW corrections, initial TS optimization, DFT functionals, gCP, sTDA/sTD-DF 
  Waldemar Hujo          : DFT-NL                                        
  H. Jonsson             : NEB                                           
  Holger Kruse           : gCP                                           
  Marcel Mueller         : wB97X-3c, vDZP basis set                      
  Hagen Neugebauer       : wr2SCAN, Native XTB                           
  Gianluca Regni         : ADLD/ADEX                                     
  Tobias Risthaus        : pre 6.0 range-separated hybrid DFT and stability analysis
  Lukas Wittmann         : regularized MP2, r2SCAN double-hybrids, wr2SCAN        
                                                                         
We gratefully acknowledge several colleagues who have allowed us to      
interface, adapt or use parts of their codes:                            
  Ed Valeev, F. Pavosevic, A. Kumar             : LibInt (2-el integral package), F12 methods 
  Garnet Chan, S. Sharma, J. Yang, R. Olivares  : DMRG                   
  Ulf Ekstrom                                   : XCFun DFT Library      
  Mihaly Kallay                                 : mrcc  (arbitrary order and MRCC methods)
  Frank Weinhold                                : gennbo (NPA and NBO analysis)           
  Simon Mueller                                 : openCOSMO-RS                            
  Christopher J. Cramer and Donald G. Truhlar   : smd solvation model                     
  S Lehtola, MJT Oliveira, MAL Marques          : LibXC Library                           
  Liviu Ungur et al                             : ANISO software                          


 Your calculation uses the libint2 library for the computation of 2-el integrals
 For citations please refer to: http://libint.valeyev.net

 Your ORCA version has been built with support for libXC version: 7.0.0
 For citations please refer to: https://libxc.gitlab.io

 This ORCA versions uses:
   CBLAS   interface :  Fast vector & matrix operations
   LAPACKE interface :  Fast linear algebra routines
   SCALAPACK package :  Parallel linear algebra routines
   Shared memory     :  Shared parallel matrices
   BLAS/LAPACK       :  OpenBLAS 0.3.29  USE64BITINT DYNAMIC_ARCH NO_AFFINITY Zen SINGLE_THREADED
        Core in use  :  Zen
   Copyright (c) 2011-2014, The OpenBLAS Project


  ***********************************
  * Starting time: Wed Sep 10 13:39:31 2025
  * Host name:     wyk-Server
  * Process ID:    2315135
  * Working dir.:  /home/wyk/Documents/code/openQDC/MGMR/singlepointcalc/118/react
  ***********************************

Your calculation utilizes the atom-pairwise dispersion correction
with the Becke-Johnson damping scheme (D3BJ)


Warning: RI is on but no J-basis has been assigned. Assigning Def2/J (nothing to worry about!)
================================================================================

----- Orbital basis set information -----
Your calculation utilizes the basis: def2-SVP
   F. Weigend and R. Ahlrichs, Phys. Chem. Chem. Phys. 7, 3297 (2005).

----- AuxJ basis set information -----
Your calculation utilizes the auxiliary basis: def2/J
   H-Rn: F. Weigend, Phys. Chem. Chem. Phys. 8, 1057 (2006).
   Fr-Lr: K. Eichkorn, F. Weigend, O. Treutler, R. Ahlrichs; Theor. Chem. Acc. 97, 119 (1997).

================================================================================
                                        WARNINGS
                       Please study these warnings very carefully!
================================================================================


================================================================================
                                       INPUT FILE
================================================================================
NAME = orca.inp
|  1> ! B3LYP def2-SVP d3 EnGrad 
|  2> %pal nprocs 6 end 
|  3> *xyz 0 1 
|  4> C   -1.3802927801013 -0.22530938843005 -0.40383302046677
|  5> C   1.70956448819009 0.02807187729487 -0.2178199388592
|  6> C   -2.25787732047847 0.70390047121233 -0.02156376134965
|  7> C   -0.37703863607418 -0.87817572406434 0.50672101532507
|  8> C   1.47563431635712 1.3008343242136 0.12837409863688
|  9> H   -3.00179585622068 1.10946795966067 -0.71263914873602
| 10> H   -2.26637204250426 1.09502472909735 1.00192590502659
| 11> H   -0.28859082718492 -0.3250420295995 1.46033771111778
| 12> H   0.53013004503789 1.65001320577869 0.54284704720979
| 13> H   -0.70851141665644 -1.9036366484112 0.74104497679541
| 14> H   2.26466398345869 2.03769616867356 -0.03006576186813
| 15> H   -1.37940126073082 -0.59824099324369 -1.43530254216038
| 16> H   2.66334186898814 -0.27876027161356 -0.65932194779825
| 17> O   0.89878443791917 -1.04834868056868 -0.09464463287308
| 18> *
| 19> 
| 20>                          ****END OF INPUT****
================================================================================

                     *******************************
                     * Energy+Gradient Calculation *
                     *******************************

---------------------------------
CARTESIAN COORDINATES (ANGSTROEM)
---------------------------------
  C     -1.380293   -0.225309   -0.403833
  C      1.709564    0.028072   -0.217820
  C     -2.257877    0.703900   -0.021564
  C     -0.377039   -0.878176    0.506721
  C      1.475634    1.300834    0.128374
  H     -3.001796    1.109468   -0.712639
  H     -2.266372    1.095025    1.001926
  H     -0.288591   -0.325042    1.460338
  H      0.530130    1.650013    0.542847
  H     -0.708511   -1.903637    0.741045
  H      2.264664    2.037696   -0.030066
  H     -1.379401   -0.598241   -1.435303
  H      2.663342   -0.278760   -0.659322
  O      0.898784   -1.048349   -0.094645

----------------------------
CARTESIAN COORDINATES (A.U.)
----------------------------
  NO LB      ZA    FRAG     MASS         X           Y           Z
   0 C     6.0000    0    12.011   -2.608375   -0.425773   -0.763134
   1 C     6.0000    0    12.011    3.230609    0.053048   -0.411620
   2 C     6.0000    0    12.011   -4.266770    1.330179   -0.040750
   3 C     6.0000    0    12.011   -0.712500   -1.659512    0.957564
   4 C     6.0000    0    12.011    2.788545    2.458221    0.242592
   5 H     1.0000    0     1.008   -5.672572    2.096591   -1.346693
   6 H     1.0000    0     1.008   -4.282822    2.069297    1.893366
   7 H     1.0000    0     1.008   -0.545358   -0.614240    2.759638
   8 H     1.0000    0     1.008    1.001801    3.118073    1.025832
   9 H     1.0000    0     1.008   -1.338893   -3.597352    1.400372
  10 H     1.0000    0     1.008    4.279595    3.850688   -0.056816
  11 H     1.0000    0     1.008   -2.606691   -1.130512   -2.712329
  12 H     1.0000    0     1.008    5.032987   -0.526781   -1.245938
  13 O     8.0000    0    15.999    1.698456   -1.981092   -0.178852

--------------------------------
INTERNAL COORDINATES (ANGSTROEM)
--------------------------------
 C      0   0   0     0.000000000000     0.00000000     0.00000000
 C      1   0   0     3.105804383853     0.00000000     0.00000000
 C      1   2   0     1.334059734507   125.48329394     0.00000000
 C      1   2   3     1.503948796272    48.35597422   252.59856585
 C      2   1   3     1.339588699257    85.36888044   352.05869830
 H      3   1   2     1.093382351494   121.65657760   123.23045141
 H      3   1   2     1.095710473888   121.42561387   303.15391034
 H      4   1   2     1.105967766865   110.99456190    95.43403176
 H      5   2   1     1.089812847930   123.65632293    21.95973185
 H      4   1   2     1.102883507243   109.37630601   214.26629490
 H      5   2   1     1.091162858048   118.54255272   203.26942116
 H      1   2   3     1.096817282349    94.77565237   133.16917389
 H      2   1   3     1.094879574941   145.04860835   208.99367657
 O      2   1   3     1.353224912316    49.04138278   146.76277705

---------------------------
INTERNAL COORDINATES (A.U.)
---------------------------
 C      0   0   0     0.000000000000     0.00000000     0.00000000
 C      1   0   0     5.869119711015     0.00000000     0.00000000
 C      1   2   0     2.521007544509   125.48329394     0.00000000
 C      1   2   3     2.842051344395    48.35597422   252.59856585
 C      2   1   3     2.531455773692    85.36888044   352.05869830
 H      3   1   2     2.066193203986   121.65657760   123.23045141
 H      3   1   2     2.070592717717   121.42561387   303.15391034
 H      4   1   2     2.089976192319   110.99456190    95.43403176
 H      5   2   1     2.059447819816   123.65632293    21.95973185
 H      4   1   2     2.084147786308   109.37630601   214.26629490
 H      5   2   1     2.061998969218   118.54255272   203.26942116
 H      1   2   3     2.072684282591    94.77565237   133.16917389
 H      2   1   3     2.069022546263   145.04860835   208.99367657
 O      2   1   3     2.557224481877    49.04138278   146.76277705

---------------------
BASIS SET INFORMATION
---------------------
There are 3 groups of distinct atoms

 Group   1 Type C   : 7s4p1d contracted to 3s2p1d pattern {511/31/1}
 Group   2 Type H   : 4s1p contracted to 2s1p pattern {31/1}
 Group   3 Type O   : 7s4p1d contracted to 3s2p1d pattern {511/31/1}

Atom   0C    basis set group =>   1
Atom   1C    basis set group =>   1
Atom   2C    basis set group =>   1
Atom   3C    basis set group =>   1
Atom   4C    basis set group =>   1
Atom   5H    basis set group =>   2
Atom   6H    basis set group =>   2
Atom   7H    basis set group =>   2
Atom   8H    basis set group =>   2
Atom   9H    basis set group =>   2
Atom  10H    basis set group =>   2
Atom  11H    basis set group =>   2
Atom  12H    basis set group =>   2
Atom  13O    basis set group =>   3
---------------------------------
AUXILIARY/J BASIS SET INFORMATION
---------------------------------
There are 3 groups of distinct atoms

 Group   1 Type C   : 12s5p4d2f1g contracted to 6s4p3d1f1g pattern {711111/2111/211/2/1}
 Group   2 Type H   : 5s2p1d contracted to 3s1p1d pattern {311/2/1}
 Group   3 Type O   : 12s5p4d2f1g contracted to 6s4p3d1f1g pattern {711111/2111/211/2/1}

Atom   0C    basis set group =>   1
Atom   1C    basis set group =>   1
Atom   2C    basis set group =>   1
Atom   3C    basis set group =>   1
Atom   4C    basis set group =>   1
Atom   5H    basis set group =>   2
Atom   6H    basis set group =>   2
Atom   7H    basis set group =>   2
Atom   8H    basis set group =>   2
Atom   9H    basis set group =>   2
Atom  10H    basis set group =>   2
Atom  11H    basis set group =>   2
Atom  12H    basis set group =>   2
Atom  13O    basis set group =>   3


           ************************************************************
           *        Program running with 6 parallel MPI-processes     *
           *              working on a common directory               *
           ************************************************************
------------------------------------------------------------------------------
                             ORCA STARTUP CALCULATIONS
                           -- RI-GTO INTEGRALS CHOSEN --
------------------------------------------------------------------------------
------------------------------------------------------------------------------
                   ___                                                        
                  /   \      - P O W E R E D   B Y -                         
                 /     \                                                     
                 |  |  |   _    _      __       _____    __    __             
                 |  |  |  | |  | |    /  \     |  _  \  |  |  /  |          
                  \  \/   | |  | |   /    \    | | | |  |  | /  /          
                 / \  \   | |__| |  /  /\  \   | |_| |  |  |/  /          
                |  |  |   |  __  | /  /__\  \  |    /   |      \           
                |  |  |   | |  | | |   __   |  |    \   |  |\   \          
                \     /   | |  | | |  |  |  |  | |\  \  |  | \   \       
                 \___/    |_|  |_| |__|  |__|  |_| \__\ |__|  \__/        
                                                                              
                      - O R C A' S   B I G   F R I E N D -                    
                                      &                                       
                       - I N T E G R A L  F E E D E R -                       
                                                                              
 v1 FN, 2020, v2 2021, v3 2022-2024                                           
------------------------------------------------------------------------------


----------------------
SHARK INTEGRAL PACKAGE
----------------------

Number of atoms                             ...     14
Number of basis functions                   ...    124
Number of shells                            ...     60
Maximum angular momentum                    ...      2
Integral batch strategy                     ... SHARK/LIBINT Hybrid
RI-J (if used) integral strategy            ... SPLIT-RIJ (Revised 2003 algorithm where possible)
Printlevel                                  ...      1
Contraction scheme used                     ... SEGMENTED contraction
Prescreening option                         ... SCHWARTZ
   Thresh                                   ... 2.500e-11
   Tcut                                     ... 2.500e-12
   Tpresel                                  ... 2.500e-12 
Coulomb Range Separation                    ... NOT USED
Exchange Range Separation                   ... NOT USED
Multipole approximations                    ... NOT USED
Finite Nucleus Model                        ... NOT USED
CABS basis                                  ... NOT available
Auxiliary Coulomb fitting basis             ... AVAILABLE
   # of basis functions in Aux-J            ...    382
   # of shells in Aux-J                     ...    130
   Maximum angular momentum in Aux-J        ...      4
Auxiliary J/K fitting basis                 ... NOT available
Auxiliary Correlation fitting basis         ... NOT available
Auxiliary 'external' fitting basis          ... NOT available

Checking pre-screening integrals            ... done (  0.0 sec) Dimension = 60
   => SHARK Basis and OBASIS are compatible. Storing Pre-screening
Shell pair information
Shell pair cut-off parameter TPreSel        ...   2.5e-12
Total number of shell pairs                 ...      1830
Shell pairs after pre-screening             ...      1772
Total number of primitive shell pairs       ...      6430
Primitive shell pairs kept                  ...      4799
          la=0 lb=0:    576 shell pairs
          la=1 lb=0:    657 shell pairs
          la=1 lb=1:    203 shell pairs
          la=2 lb=0:    198 shell pairs
          la=2 lb=1:    117 shell pairs
          la=2 lb=2:     21 shell pairs

Checking whether 4 symmetric matrices of dimension 124 fit in memory
:Max Core in MB      =   4096.00
 MB in use           =      5.58
 MB left             =   4090.42
 MB needed           =      0.24
 Data fit in memory  = YES
Calculating RI/J V-Matrix + Cholesky decomp.... done (  0.0 sec)
Calculating Nuclear repulsion               ... done (  0.0 sec) ENN=    224.409950927841 Eh

Diagonalization of the overlap matrix:
Smallest eigenvalue                        ... 2.442e-03
Time for diagonalization                   ...    0.002 sec
Threshold for overlap eigenvalues          ... 1.000e-07
Number of eigenvalues below threshold      ... 0
Time for construction of square roots      ...    0.001 sec
Total time needed                          ...    0.004 sec

-------------------
DFT GRID GENERATION
-------------------

General Integration Accuracy     IntAcc      ... 4.388
Radial Grid Type                 RadialGrid  ... OptM3 with GC (2021)
Angular Grid (max. ang.)         AngularGrid ... 4 (Lebedev-302)
Angular grid pruning method      GridPruning ... 4 (adaptive)
Weight generation scheme         WeightScheme... mBecke (2022)
Basis function cutoff            BFCut       ... 1.0000e-11
Integration weight cutoff        WCut        ... 1.0000e-14
Partially contracted basis set               ... off
Rotationally invariant grid construction     ... off
Angular grids for H and He will be reduced by one unit

Total number of grid points                  ...    62165
Total number of batches                      ...      978
Average number of points per batch           ...       63
Average number of grid points per atom       ...     4440

--------------------
COSX GRID GENERATION
--------------------

GRIDX 1
-------
General Integration Accuracy     IntAcc      ... 3.816
Radial Grid Type                 RadialGrid  ... OptM3 with GC (2021)
Angular Grid (max. ang.)         AngularGrid ... 1 (Lebedev-50)
Angular grid pruning method      GridPruning ... 4 (adaptive)
Weight generation scheme         WeightScheme... mBecke (2022)
Basis function cutoff            BFCut       ... 1.0000e-11
Integration weight cutoff        WCut        ... 1.0000e-14
Partially contracted basis set               ... on
Rotationally invariant grid construction     ... off
Angular grids for H and He will be reduced by one unit

Total number of grid points                  ...     7990
Total number of batches                      ...       72
Average number of points per batch           ...      110
Average number of grid points per atom       ...      571
UseSFitting                                  ... on

GRIDX 2
-------
General Integration Accuracy     IntAcc      ... 4.020
Radial Grid Type                 RadialGrid  ... OptM3 with GC (2021)
Angular Grid (max. ang.)         AngularGrid ... 2 (Lebedev-110)
Angular grid pruning method      GridPruning ... 4 (adaptive)
Weight generation scheme         WeightScheme... mBecke (2022)
Basis function cutoff            BFCut       ... 1.0000e-11
Integration weight cutoff        WCut        ... 1.0000e-14
Partially contracted basis set               ... on
Rotationally invariant grid construction     ... off
Angular grids for H and He will be reduced by one unit

Total number of grid points                  ...    17050
Total number of batches                      ...      138
Average number of points per batch           ...      123
Average number of grid points per atom       ...     1218
UseSFitting                                  ... on

GRIDX 3
-------
General Integration Accuracy     IntAcc      ... 4.338
Radial Grid Type                 RadialGrid  ... OptM3 with GC (2021)
Angular Grid (max. ang.)         AngularGrid ... 3 (Lebedev-194)
Angular grid pruning method      GridPruning ... 4 (adaptive)
Weight generation scheme         WeightScheme... mBecke (2022)
Basis function cutoff            BFCut       ... 1.0000e-11
Integration weight cutoff        WCut        ... 1.0000e-14
Partially contracted basis set               ... on
Rotationally invariant grid construction     ... off
Angular grids for H and He will be reduced by one unit

Total number of grid points                  ...    37390
Total number of batches                      ...      300
Average number of points per batch           ...      124
Average number of grid points per atom       ...     2671
UseSFitting                                  ... on
Grids setup in   0.8 sec
Initializing property integral containers    ... done (  0.0 sec)

SHARK setup successfully completed in   0.9 seconds

Maximum memory used throughout the entire STARTUP-calculation: 18.2 MB


           ************************************************************
           *        Program running with 6 parallel MPI-processes     *
           *              working on a common directory               *
           ************************************************************
-------------------------------------------------------------------------------
                                 ORCA GUESS
                   Start orbitals & Density for SCF / CASSCF
-------------------------------------------------------------------------------

------------
SCF SETTINGS
------------
Hamiltonian:
 Density Functional     Method          .... DFT(GTOs)
 Exchange Functional    Exchange        .... B88
   X-Alpha parameter    XAlpha          ....  0.666667
   Becke's b parameter  XBeta           ....  0.004200
 Correlation Functional Correlation     .... LYP
 LDA part of GGA corr.  LDAOpt          .... VWN-5
 Gradients option       PostSCFGGA      .... off
 Hybrid DFT is turned on
   Fraction HF Exchange ScalHFX         ....  0.200000
   Scaling of DF-GGA-X  ScalDFX         ....  0.720000
   Scaling of DF-GGA-C  ScalDFC         ....  0.810000
   Scaling of DF-LDA-C  ScalLDAC        ....  1.000000
   Perturbative correction              ....  0.000000
   NL short-range parameter             ....  4.800000
 RI-approximation to the Coulomb term is turned on
   Number of AuxJ basis functions       .... 382
   RIJ-COSX (HFX calculated with COS-X)).... on


General Settings:
 Integral files         IntName         .... orca
 Hartree-Fock type      HFTyp           .... RHF
 Total Charge           Charge          ....    0
 Multiplicity           Mult            ....    1
 Number of Electrons    NEL             ....   46
 Basis Dimension        Dim             ....  124
 Nuclear Repulsion      ENuc            ....    224.4099509278 Eh

Convergence Acceleration:
 AO-DIIS                CNVDIIS         .... on
   Start iteration      DIISMaxIt       ....    12
   Startup error        DIISStart       ....  0.200000
   # of expansion vecs  DIISMaxEq       ....     5
   Bias factor          DIISBfac        ....   1.050
   Max. coefficient     DIISMaxC        ....  10.000
 MO-DIIS                CNVKDIIS        .... off
 Trust-Rad. Augm. Hess. CNVTRAH         .... auto
   Auto Start mean grad. ratio tolernc. ....  1.125000
   Auto Start start iteration           ....    50
   Auto Start num. interpolation iter.  ....    10
   Max. Number of Micro iterations      ....    24
   Max. Number of Macro iterations      .... Maxiter - #DIIS iter
   Number of Davidson start vectors     ....     2
   Converg. threshold    (grad. norm)   ....   1.000e-05
   Grad. Scal. Fac. for Micro threshold ....   0.100
   Minimum threshold for Micro iter.    ....   1.000e-02
   NR start threshold (gradient norm)   ....   1.000e-04
   Initial trust radius                 ....   0.400
   Minimum AH scaling param. (alpha)    ....   1.000
   Maximum AH scaling param. (alpha)    .... 1000.000
   Quad. conv. algorithm                .... NR
   White noise on init. David. guess    .... on
   Maximum white noise                  ....   0.010
   Pseudo random numbers                .... off
   Inactive MOs                         .... canonical
   Orbital update algorithm             .... Taylor
   Preconditioner                       .... Diag
   Full preconditioner red. dimension   ....   250
 SOSCF                 CNVSOSCF           .... on
   Start iteration     SOSCFMaxIt         ....   150
   Startup grad/error  SOSCFStart         ....  0.003300
   Hessian update      SOSCFHessUp        .... L-BFGS
   Autom. constraints  SOSCFAutoConstrain .... off
 Level Shifting         CNVShift        .... on
   Level shift para.    LevelShift      ....    0.2500
   Turn off err/grad.   ShiftErr        ....    0.0010
 Zerner damping         CNVZerner       .... off
 Static damping         CNVDamp         .... on
   Fraction old density DampFac         ....    0.7000
   Max. Damping (<1)    DampMax         ....    0.9800
   Min. Damping (>=0)   DampMin         ....    0.0000
   Turn off err/grad.   DampErr         ....    0.1000

SCF Procedure:
 Maximum # iterations   MaxIter         ....   125
 SCF integral mode      SCFMode         .... Direct
   Integral package                     .... SHARK and LIBINT hybrid scheme
 Reset frequency        DirectResetFreq ....    20
 Integral Threshold     Thresh          ....  2.500e-11 Eh
 Primitive CutOff       TCut            ....  2.500e-12 Eh

Convergence Tolerance:
 Convergence Check Mode ConvCheckMode   .... Total+1el-Energy
 Convergence forced     ConvForced      .... 0
 Energy Change          TolE            ....  1.000e-08 Eh
 1-El. energy change                    ....  1.000e-05 Eh
 Orbital Gradient       TolG            ....  1.000e-05
 Orbital Rotation angle TolX            ....  1.000e-05
 DIIS Error             TolErr          ....  5.000e-07

------------------------------
INITIAL GUESS: MODEL POTENTIAL
------------------------------
Loading Hartree-Fock densities                     ... done
Calculating cut-offs                               ... done
Initializing the effective Hamiltonian             ... done
Setting up the integral package (SHARK)            ... done
Starting the Coulomb interaction                   ... done (   0.0 sec)
Making the grid                                    ... done (   0.1 sec)
Mapping shells                                     ... done
Starting the XC term evaluation                    ... done (   0.0 sec)
  promolecular density results
     # of electrons  =     45.995805125
     EX              =    -36.223409426
     EC              =     -1.512291960
     EX+EC           =    -37.735701386
Transforming the Hamiltonian                       ... done (   0.0 sec)
Diagonalizing the Hamiltonian                      ... done (   0.0 sec)
Back transforming the eigenvectors                 ... done (   0.0 sec)
Now organizing SCF variables                       ... done
                      ------------------
                      INITIAL GUESS DONE (   0.2 sec)
                      ------------------
             **** ENERGY FILE WAS UPDATED (orca.en.tmp) ****
Finished Guess after   0.3 sec
Maximum memory used throughout the entire GUESS-calculation: 8.1 MB


           ************************************************************
           *        Program running with 6 parallel MPI-processes     *
           *              working on a common directory               *
           ************************************************************

-------------------------------------------------------------------------------------------
                                      ORCA LEAN-SCF
                              memory conserving SCF solver
-------------------------------------------------------------------------------------------

----------------------------------------D-I-I-S--------------------------------------------
Iteration    Energy (Eh)           Delta-E    RMSDP     MaxDP     DIISErr   Damp  Time(sec)
-------------------------------------------------------------------------------------------
               ***  Starting incremental Fock matrix formation  ***
    1    -269.9887608875052365     0.00e+00  7.86e-03  7.76e-02  1.75e-01  0.700   0.7
    2    -270.0576842544386409    -6.89e-02  5.71e-03  4.90e-02  9.17e-02  0.700   0.4
                               ***Turning on AO-DIIS***
    3    -270.0877909672108217    -3.01e-02  2.41e-03  1.74e-02  3.53e-02  0.700   0.4
    4    -270.1050153392433231    -1.72e-02  4.21e-03  2.68e-02  1.91e-02  0.000   0.4
    5    -270.1416634179624907    -3.66e-02  7.25e-04  4.88e-03  4.77e-03  0.000   0.5
                              *** Initializing SOSCF ***
---------------------------------------S-O-S-C-F--------------------------------------
Iteration    Energy (Eh)           Delta-E    RMSDP     MaxDP     MaxGrad    Time(sec)
--------------------------------------------------------------------------------------
    6    -270.1418348053410909    -1.71e-04  2.47e-04  1.84e-03  2.31e-03     0.4
               *** Restarting incremental Fock matrix formation ***
    7    -270.1418033154157001     3.15e-05  1.86e-04  1.45e-03  2.13e-04     0.7
    8    -270.1418021712826203     1.14e-06  7.91e-05  9.08e-04  4.07e-04     0.6
    9    -270.1418052232116906    -3.05e-06  4.12e-05  3.93e-04  1.14e-04     0.5
   10    -270.1418051166120904     1.07e-07  2.21e-05  2.38e-04  1.26e-04     0.5
   11    -270.1418053556171799    -2.39e-07  6.16e-06  6.72e-05  9.84e-06     0.5
   12    -270.1418053542769258     1.34e-09  3.71e-06  3.52e-05  1.48e-05     0.5
                 **** Energy Check signals convergence ****

               *****************************************************
               *                     SUCCESS                       *
               *           SCF CONVERGED AFTER  12 CYCLES          *
               *****************************************************

Recomputing exchange energy using gridx3       ... done (    1.024 sec)
Old exchange energy                            :     -7.370958380 Eh
New exchange energy                            :     -7.370969480 Eh
Exchange energy change after final integration :     -0.000011099 Eh
Total energy after final integration           :   -270.141816458 Eh
             **** ENERGY FILE WAS UPDATED (orca.en.tmp) ****

----------------
TOTAL SCF ENERGY
----------------

Total Energy       :       -270.14181645844263 Eh           -7350.93254 eV

Components:
Nuclear Repulsion  :        224.40995092784092 Eh            6106.50521 eV
Electronic Energy  :       -494.55175628681553 Eh          -13457.43745 eV
One Electron Energy:       -809.17907439310295 Eh          -22018.88203 eV
Two Electron Energy:        314.62731810628742 Eh            8561.44458 eV

Virial components:
Potential Energy   :       -537.51625013740477 Eh          -14626.56077 eV
Kinetic Energy     :        267.37443367896219 Eh            7275.62823 eV
Virial Ratio       :          2.01035021464619

DFT components:
N(Alpha)           :       23.000023557772 electrons
N(Beta)            :       23.000023557772 electrons
N(Total)           :       46.000047115544 electrons
E(X)               :      -29.269712712141 Eh       
E(C)               :       -1.792241288759 Eh       
E(XC)              :      -31.061954000900 Eh       

---------------
SCF CONVERGENCE
---------------

  Last Energy change         ...   -1.3403e-09  Tolerance :   1.0000e-08
  Last MAX-Density change    ...    3.5217e-05  Tolerance :   1.0000e-07
  Last RMS-Density change    ...    3.7089e-06  Tolerance :   5.0000e-09
  Last DIIS Error            ...    2.3059e-03  Tolerance :   5.0000e-07
  Last Orbital Gradient      ...    1.4813e-05  Tolerance :   1.0000e-05
  Last Orbital Rotation      ...    2.0722e-05  Tolerance :   1.0000e-05


----------------
ORBITAL ENERGIES
----------------

  NO   OCC          E(Eh)            E(eV) 
   0   2.0000     -19.159125      -521.3463 
   1   2.0000     -10.245078      -278.7827 
   2   2.0000     -10.236010      -278.5360 
   3   2.0000     -10.195989      -277.4470 
   4   2.0000     -10.191003      -277.3113 
   5   2.0000     -10.165564      -276.6191 
   6   2.0000      -1.052163       -28.6308 
   7   2.0000      -0.788562       -21.4579 
   8   2.0000      -0.740697       -20.1554 
   9   2.0000      -0.684735       -18.6326 
  10   2.0000      -0.582526       -15.8513 
  11   2.0000      -0.550402       -14.9772 
  12   2.0000      -0.512272       -13.9396 
  13   2.0000      -0.474049       -12.8995 
  14   2.0000      -0.460521       -12.5314 
  15   2.0000      -0.443715       -12.0741 
  16   2.0000      -0.410146       -11.1606 
  17   2.0000      -0.382182       -10.3997 
  18   2.0000      -0.376839       -10.2543 
  19   2.0000      -0.339891        -9.2489 
  20   2.0000      -0.328210        -8.9310 
  21   2.0000      -0.271599        -7.3906 
  22   2.0000      -0.227580        -6.1928 
  23   0.0000      -0.002178        -0.0593 
  24   0.0000       0.036606         0.9961 
  25   0.0000       0.073497         1.9999 
  26   0.0000       0.086724         2.3599 
  27   0.0000       0.091947         2.5020 
  28   0.0000       0.108122         2.9422 
  29   0.0000       0.130323         3.5463 
  30   0.0000       0.136398         3.7116 
  31   0.0000       0.150327         4.0906 
  32   0.0000       0.160951         4.3797 
  33   0.0000       0.182385         4.9629 
*Only the first 10 virtual orbitals were printed.

                    ********************************
                    * MULLIKEN POPULATION ANALYSIS *
                    ********************************

-----------------------
MULLIKEN ATOMIC CHARGES
-----------------------
   0 C :   -0.101059
   1 C :    0.133724
   2 C :   -0.019838
   3 C :    0.261871
   4 C :   -0.102129
   5 H :    0.028043
   6 H :    0.019009
   7 H :    0.005908
   8 H :    0.021096
   9 H :    0.025063
  10 H :    0.019435
  11 H :    0.014970
  12 H :    0.010886
  13 O :   -0.316979
Sum of atomic charges:    0.0000000

--------------------------------
MULLIKEN REDUCED ORBITAL CHARGES
--------------------------------
  0 C s       :     3.179642  s :     3.179642
      pz      :     0.956144  p :     2.887105
      px      :     0.949560
      py      :     0.981400
      dz2     :     0.007384  d :     0.034313
      dxz     :     0.006925
      dyz     :     0.006889
      dx2y2   :     0.007366
      dxy     :     0.005749

  1 C s       :     3.074551  s :     3.074551
      pz      :     0.976938  p :     2.723685
      px      :     0.873079
      py      :     0.873668
      dz2     :     0.005489  d :     0.068039
      dxz     :     0.005853
      dyz     :     0.016024
      dx2y2   :     0.018315
      dxy     :     0.022357

  2 C s       :     3.104909  s :     3.104909
      pz      :     0.923804  p :     2.888229
      px      :     0.973704
      py      :     0.990721
      dz2     :     0.005905  d :     0.026701
      dxz     :     0.005588
      dyz     :     0.005390
      dx2y2   :     0.005525
      dxy     :     0.004292

  3 C s       :     2.957271  s :     2.957271
      pz      :     0.945220  p :     2.719754
      px      :     0.745678
      py      :     1.028857
      dz2     :     0.010384  d :     0.061104
      dxz     :     0.015909
      dyz     :     0.007847
      dx2y2   :     0.016253
      dxy     :     0.010710

  4 C s       :     3.093897  s :     3.093897
      pz      :     1.094047  p :     2.983839
      px      :     0.936115
      py      :     0.953677
      dz2     :     0.002165  d :     0.024394
      dxz     :     0.001567
      dyz     :     0.005338
      dx2y2   :     0.007275
      dxy     :     0.008049

  5 H s       :     0.948582  s :     0.948582
      pz      :     0.008400  p :     0.023375
      px      :     0.009195
      py      :     0.005781

  6 H s       :     0.957602  s :     0.957602
      pz      :     0.013303  p :     0.023389
      px      :     0.004333
      py      :     0.005753

  7 H s       :     0.972653  s :     0.972653
      pz      :     0.011728  p :     0.021439
      px      :     0.002588
      py      :     0.007122

  8 H s       :     0.954433  s :     0.954433
      pz      :     0.006836  p :     0.024471
      px      :     0.012354
      py      :     0.005281

  9 H s       :     0.953920  s :     0.953920
      pz      :     0.004676  p :     0.021017
      px      :     0.003279
      py      :     0.013063

 10 H s       :     0.956424  s :     0.956424
      pz      :     0.005582  p :     0.024141
      px      :     0.009612
      py      :     0.008947

 11 H s       :     0.962537  s :     0.962537
      pz      :     0.013529  p :     0.022493
      px      :     0.003835
      py      :     0.005129

 12 H s       :     0.967924  s :     0.967924
      pz      :     0.006150  p :     0.021190
      px      :     0.011821
      py      :     0.003219

 13 O s       :     3.735160  s :     3.735160
      pz      :     1.700435  p :     4.565078
      px      :     1.309391
      py      :     1.555252
      dz2     :     0.002193  d :     0.016741
      dxz     :     0.002870
      dyz     :     0.002529
      dx2y2   :     0.004436
      dxy     :     0.004713



                     *******************************
                     * LOEWDIN POPULATION ANALYSIS *
                     *******************************

----------------------
LOEWDIN ATOMIC CHARGES
----------------------
   0 C :   -0.037876
   1 C :    0.052389
   2 C :   -0.049795
   3 C :    0.085469
   4 C :   -0.149321
   5 H :    0.027437
   6 H :    0.021898
   7 H :    0.015591
   8 H :    0.021182
   9 H :    0.032765
  10 H :    0.029650
  11 H :    0.030147
  12 H :    0.023028
  13 O :   -0.102564

-------------------------------
LOEWDIN REDUCED ORBITAL CHARGES
-------------------------------
  0 C s       :     2.888706  s :     2.888706
      pz      :     1.037925  p :     3.062160
      px      :     1.009896
      py      :     1.014339
      dz2     :     0.019520  d :     0.087010
      dxz     :     0.018074
      dyz     :     0.018354
      dx2y2   :     0.015177
      dxy     :     0.015885

  1 C s       :     2.863324  s :     2.863324
      pz      :     0.980984  p :     2.927237
      px      :     0.948666
      py      :     0.997587
      dz2     :     0.011826  d :     0.157051
      dxz     :     0.012409
      dyz     :     0.034352
      dx2y2   :     0.046759
      dxy     :     0.051704

  2 C s       :     2.886511  s :     2.886511
      pz      :     1.038557  p :     3.093596
      px      :     1.032001
      py      :     1.023038
      dz2     :     0.015920  d :     0.069688
      dxz     :     0.014869
      dyz     :     0.014931
      dx2y2   :     0.011180
      dxy     :     0.012788

  3 C s       :     2.841908  s :     2.841908
      pz      :     1.013443  p :     2.932701
      px      :     0.847054
      py      :     1.072205
      dz2     :     0.023073  d :     0.139922
      dxz     :     0.036782
      dyz     :     0.020592
      dx2y2   :     0.035857
      dxy     :     0.023618

  4 C s       :     2.882007  s :     2.882007
      pz      :     1.091555  p :     3.201804
      px      :     1.050311
      py      :     1.059938
      dz2     :     0.005355  d :     0.065510
      dxz     :     0.004032
      dyz     :     0.012036
      dx2y2   :     0.020975
      dxy     :     0.023112

  5 H s       :     0.905386  s :     0.905386
      pz      :     0.024363  p :     0.067177
      px      :     0.026313
      py      :     0.016501

  6 H s       :     0.911161  s :     0.911161
      pz      :     0.038898  p :     0.066941
      px      :     0.011942
      py      :     0.016101

  7 H s       :     0.919636  s :     0.919636
      pz      :     0.036282  p :     0.064773
      px      :     0.008462
      py      :     0.020028

  8 H s       :     0.907284  s :     0.907284
      pz      :     0.021777  p :     0.071534
      px      :     0.035866
      py      :     0.013891

  9 H s       :     0.904794  s :     0.904794
      pz      :     0.012538  p :     0.062442
      px      :     0.011351
      py      :     0.038553

 10 H s       :     0.901137  s :     0.901137
      pz      :     0.017428  p :     0.069213
      px      :     0.027947
      py      :     0.023838

 11 H s       :     0.903144  s :     0.903144
      pz      :     0.039671  p :     0.066709
      px      :     0.011770
      py      :     0.015269

 12 H s       :     0.912925  s :     0.912925
      pz      :     0.018224  p :     0.064047
      px      :     0.035395
      py      :     0.010428

 13 O s       :     3.439878  s :     3.439878
      pz      :     1.697300  p :     4.631290
      px      :     1.350965
      py      :     1.583025
      dz2     :     0.003817  d :     0.031396
      dxz     :     0.005685
      dyz     :     0.003588
      dx2y2   :     0.008587
      dxy     :     0.009719



                      *****************************
                      * MAYER POPULATION ANALYSIS *
                      *****************************

  NA   - Mulliken gross atomic population
  ZA   - Total nuclear charge
  QA   - Mulliken gross atomic charge
  VA   - Mayer's total valence
  BVA  - Mayer's bonded valence
  FA   - Mayer's free valence

  ATOM       NA         ZA         QA         VA         BVA        FA
  0 C      6.1011     6.0000    -0.1011     4.0759     4.0759    -0.0000
  1 C      5.8663     6.0000     0.1337     4.0561     4.0561    -0.0000
  2 C      6.0198     6.0000    -0.0198     3.9443     3.9443     0.0000
  3 C      5.7381     6.0000     0.2619     3.9218     3.9218     0.0000
  4 C      6.1021     6.0000    -0.1021     3.9046     3.9046     0.0000
  5 H      0.9720     1.0000     0.0280     0.9757     0.9757     0.0000
  6 H      0.9810     1.0000     0.0190     0.9839     0.9839    -0.0000
  7 H      0.9941     1.0000     0.0059     1.0003     1.0003     0.0000
  8 H      0.9789     1.0000     0.0211     1.0004     1.0004    -0.0000
  9 H      0.9749     1.0000     0.0251     0.9827     0.9827    -0.0000
 10 H      0.9806     1.0000     0.0194     0.9820     0.9820     0.0000
 11 H      0.9850     1.0000     0.0150     0.9875     0.9875     0.0000
 12 H      0.9891     1.0000     0.0109     0.9881     0.9881    -0.0000
 13 O      8.3170     8.0000    -0.3170     2.2193     2.2193    -0.0000

  Mayer bond orders larger than 0.100000
B(  0-C ,  2-C ) :   2.0002 B(  0-C ,  3-C ) :   1.0429 B(  0-C , 11-H ) :   0.9578 
B(  1-C ,  4-C ) :   1.8864 B(  1-C , 12-H ) :   0.9711 B(  1-C , 13-O ) :   1.1240 
B(  2-C ,  5-H ) :   0.9494 B(  2-C ,  6-H ) :   0.9528 B(  3-C ,  7-H ) :   0.9421 
B(  3-C ,  9-H ) :   0.9334 B(  3-C , 13-O ) :   0.9558 B(  4-C ,  8-H ) :   0.9558 
B(  4-C , 10-H ) :   0.9438 

-------
TIMINGS
-------

Total SCF time: 0 days 0 hours 0 min 7 sec 

Total time                  ....       7.830 sec
Sum of individual times     ....       7.348 sec  ( 93.9%)

SCF preparation             ....       0.178 sec  (  2.3%)
Fock matrix formation       ....       6.952 sec  ( 88.8%)
  Startup                   ....       0.005 sec  (  0.1% of F)
  Split-RI-J                ....       0.583 sec  (  8.4% of F)
  Chain of spheres X        ....       5.249 sec  ( 75.5% of F)
  XC integration            ....       1.427 sec  ( 20.5% of F)
    XC Preparation          ....       0.000 sec  (  0.0% of XC)
    Basis function eval.    ....       0.416 sec  ( 29.1% of XC)
    Density eval.           ....       0.227 sec  ( 15.9% of XC)
    XC-Functional eval.     ....       0.083 sec  (  5.8% of XC)
    XC-Potential eval.      ....       0.262 sec  ( 18.3% of XC)
Diagonalization             ....       0.000 sec  (  0.0%)
Density matrix formation    ....       0.029 sec  (  0.4%)
Total Energy calculation    ....       0.016 sec  (  0.2%)
Population analysis         ....       0.013 sec  (  0.2%)
Orbital Transformation      ....       0.015 sec  (  0.2%)
Orbital Orthonormalization  ....       0.000 sec  (  0.0%)
DIIS solution               ....       0.087 sec  (  1.1%)
SOSCF solution              ....       0.058 sec  (  0.7%)
Finished LeanSCF after   7.8 sec

Maximum memory used throughout the entire LEANSCF-calculation: 10.9 MB


-------------------------------------------------------------------------------
                          DFT DISPERSION CORRECTION                            
                                                                               
                              DFTD3 V3.1  Rev 1                                
                          USING Becke-Johnson damping                          
-------------------------------------------------------------------------------
The B3LYP functional is recognized
Active option DFTDOPT                   ...         4   

molecular C6(AA) [au] = 1736.004519 


            DFT-D V3
 parameters
 s6 scaling factor         :     1.0000 
 a1 scaling factor         :     0.3981 
 s8 scaling factor         :     1.9889 
 a2 scaling factor         :     4.4211 
 ad hoc parameters k1-k3   :    16.0000     1.3333    -4.0000 

 Edisp/kcal,au: -11.337826183927  -0.018067974179 
 E6   /kcal   :  -5.483090532 
 E8   /kcal   :  -5.854735652 
 % E8         :  51.638961096 

-------------------------   ----------------
Dispersion correction           -0.018067974
-------------------------   ----------------


-------------------------   --------------------
FINAL SINGLE POINT ENERGY      -270.159884432622
-------------------------   --------------------



           ************************************************************
           *        Program running with 6 parallel MPI-processes     *
           *              working on a common directory               *
           ************************************************************
------------------------------------------------------------------------------
                         ORCA SCF GRADIENT CALCULATION
------------------------------------------------------------------------------

Nuc. rep. gradient        (SHARK) ... done (  0.0 sec)
HCore & Overlap gradient  (SHARK) ... done (  0.0 sec)
Split-RIJ-J gradient      (SHARK) ... done (  0.2 sec)
done (  3.7 sec)
XC gradient                       ... done (  0.7 sec)
Dispersion correction             ... done (  0.0 sec)

-------------------
DISPERSION GRADIENT
-------------------

   1   C   :   -0.000534229   -0.000184424   -0.000146765
   2   C   :    0.000597421    0.000019676   -0.000064061
   3   C   :   -0.000684612    0.000195439   -0.000066580
   4   C   :   -0.000062213   -0.000332997    0.000113138
   5   C   :    0.000624690    0.000432956    0.000013036
   6   H   :   -0.000169060    0.000090658   -0.000046478
   7   H   :   -0.000254446    0.000135061    0.000083159
   8   H   :   -0.000035441   -0.000136829    0.000230085
   9   H   :    0.000214817    0.000303033    0.000083994
  10   H   :   -0.000041581   -0.000279133    0.000110672
  11   H   :    0.000114035    0.000158096   -0.000000744
  12   H   :   -0.000197801   -0.000090310   -0.000225100
  13   H   :    0.000209477   -0.000039502   -0.000075638
  14   O   :    0.000218943   -0.000271722   -0.000008718

Difference to translation invariance:
           :   -0.0000000000   -0.0000000000   -0.0000000000

Difference to rotation invariance:
           :    0.0000000000   -0.0000000000    0.0000000000

Norm of the Dispersion gradient    ...    0.0016330195
RMS gradient                       ...    0.0002519804
MAX gradient                       ...    0.0006846123

------------------
CARTESIAN GRADIENT
------------------

   1   C   :   -0.000021572    0.000013814   -0.000039205
   2   C   :    0.000091997    0.000047741    0.000067674
   3   C   :    0.000001925   -0.000123064    0.000104054
   4   C   :   -0.000019029    0.000047374    0.000091020
   5   C   :    0.000006184    0.000036089    0.000079487
   6   H   :    0.000020882   -0.000008301   -0.000038414
   7   H   :    0.000117979   -0.000030103   -0.000071663
   8   H   :    0.000014266    0.000054988   -0.000009827
   9   H   :   -0.000027136   -0.000007404   -0.000033269
  10   H   :   -0.000033689    0.000012944   -0.000004219
  11   H   :   -0.000002231   -0.000004519   -0.000019000
  12   H   :    0.000016867    0.000006966    0.000065525
  13   H   :   -0.000054522   -0.000027209    0.000032179
  14   O   :   -0.000111919   -0.000019314   -0.000224344

Difference to translation invariance:
           :    0.0000000000   -0.0000000000   -0.0000000000

Difference to rotation invariance:
           :    0.0000078242    0.0000987131    0.0000222847

Norm of the Cartesian gradient     ...    0.0004043699
RMS gradient                       ...    0.0000623956
MAX gradient                       ...    0.0002243437

-------
TIMINGS
-------

Total SCF gradient time     ....        4.662 sec

Densities                   ....       0.000 sec  (  0.0%)
One electron gradient       ....       0.038 sec  (  0.8%)
RI-J Coulomb gradient       ....       0.224 sec  (  4.8%)
COSX gradient               ....       3.682 sec  ( 79.0%)
XC gradient                 ....       0.673 sec  ( 14.4%)

Maximum memory used throughout the entire SCFGRAD-calculation: 28.0 MB


           ************************************************************
           *        Program running with 6 parallel MPI-processes     *
           *              working on a common directory               *
           ************************************************************

------------------------------------------------------------------------------
                              ORCA PROPERTY CALCULATIONS
------------------------------------------------------------------------------

GBWName                                 ... orca.gbw
Number of atoms                         ...     14
Number of basis functions               ...    124
Max core memory                         ...   4096 MB

Electric properties:
Dipole moment                           ... YES
Quadrupole moment                       ...  NO
Static polarizability (Dipole/Dipole)   ...  NO
Static polarizability (Dipole/Quad.)    ...  NO
Static polarizability (Quad./Quad.)     ...  NO
Static polarizability (Velocity)        ...  NO
Static hyperpolarizability              ...  NO

Atomic electric properties:
Dipole moment                           ...  NO
Quadrupole moment                       ...  NO
Static polarizability                   ...  NO

Choice of electric origin               ... Center of mass
Position of electric origin             ...     0.049567    -0.062939    -0.015628

General magnetic properties:
Magnetizability                         ...  NO

EPR properties:
g-Tensor (aka g-matrix)                 ...  NO
Zero-Field splitting spin-orbit         ...  NO
Zero-field splitting spin-spin          ...  NO
Hyperfine couplings                     ...  NO (   0 nuclei)
Quadrupole couplings                    ...  NO (   0 nuclei)
Contact density                         ...  NO (   0 nuclei)

NMR properties:
Chemical shifts                         ...  NO (   0 nuclei)
Spin-rotation constants                 ...  NO (   0 nuclei)
Spin-spin couplings                     ...  NO (   0 nuclei,    0 pairs)

Choice of magnetic origin               ... GIAO
Position of magnetic origin             ...     0.000000     0.000000     0.000000

Properties with geometric perturbations:
SCF Hessian                             ...  NO
IR spectrum                             ...  NO
VCD spectrum                            ...  NO
X-ray spectroscopy properties:
SCF XES/XAS/RIXS spectra                ...  NO

SCF SOC stabilization energy            ...  NO
Diagonal Born-Oppenheimer correction    ...  NO

-------------
DIPOLE MOMENT
-------------

Method             : SCF
Type of density    : Electron Density
Multiplicity       :   1
Irrep              :   0
Energy             :  -270.1418164584426336 Eh
Basis              : AO
                                X                 Y                 Z
Electronic contribution:      1.888986401      -2.786176001      -0.795073493
Nuclear contribution   :     -2.235314941       2.849212876       0.913433052
                        -----------------------------------------
Total Dipole Moment    :     -0.346328539       0.063036876       0.118359559
                        -----------------------------------------
Magnitude (a.u.)       :      0.371384020
Magnitude (Debye)      :      0.943983159



--------------------
Rotational spectrum 
--------------------
 
Rotational constants in cm-1:             0.210205             0.083320             0.065708 
Rotational constants in MHz :          6301.801853          2497.872697          1969.867295 

Dipole components along the rotational axes: 
x,y,z [a.u.] :     0.346545     0.057282     0.120630 
x,y,z [Debye]:     0.880847     0.145600     0.306617 

 

Dipole moment calculation done in   0.0 sec 

Maximum memory used throughout the entire PROP-calculation: 6.1 MB

--------------------------------
SUGGESTED CITATIONS FOR THIS RUN
--------------------------------

Below you find a list of papers that are relevant to this ORCA run
We neither can nor want to force you to cite these papers, but we appreciate if you do
You receive ORCA, which is the product of decades of hard work by many enthusiastic individuals, for free
The only thing we kindly ask in return is that you cite our papers,
We deeply appreciate it, if you show your appreciation for ORCA by not just citing the generic ORCA reference.

Please note that relegating all ORCA citations to the supporting information does *not* help us.
SI sections are not indexed - citations you put there will not count into any citation statistics
But we need these citations in order to attract the funding resources that allow us to do what we are doing

Therefore, if you are a happy ORCA user, please consider citing a few of the papers listed below in the main body of your paper

In addition to the list printed below, the program has created the file orca.bibtex that contains the list in bibtex format
You can import this file easily into all common literature databanks and citation aid programs


List of essential papers. We consider these as the minimum necessary citations

  1. Neese, F.
     Software update: the ORCA program system, version 6.0
     WIRES Comput. Molec. Sci. 2025 15(1), e70019
     doi.org/10.1002/wcms.7019

List of papers to cite with high priority. The work reported in these papers was absolutely
necessary for this run to complete.
Our perspective: the developers of density functionals and basis sets usually get cited in chemistry papers
Good! But without the algorithms to do something with them, the functionals or basis sets would not do anything.
Hence, in our opinion, the algorithm design and method developments papers are equally worthy of getting cited

  1. Neese, F.
     An improvement of the resolution of the identity approximation for the formation of the Coulomb matrix
     J. Comp. Chem. 2003 24(14), 1740-1747
     doi.org/10.1002/jcc.10318
  2. Neese, F.; Wennmohs, F.; Hansen, A.; Becker, U.
     Efficient, approximate and parallel Hartree-Fock and hybrid DFT calculations. A 'chain-of-spheres' algorithm for the Hartree-Fock exchange
     Chem. Phys. 2009 356(1-3), 98-109
     doi.org/10.1016/j.chemphys.2008.10.036
  3. Grimme, S.; Antony, J.; Ehrlich, S.; Krieg, H.
     A consistent and accurate ab initio parametrization of density functional dispersion correction (DFT-D) for the 94 elements H-Pu
     J. Chem. Phys. 2010 132 , 154104
     doi.org/10.1063/1.3382344
  4. Grimme, S.; Ehrlich, S.; Goerigk, L.
     Effect of the damping function in dispersion corrected density functional theory
     J. Comput. Chem. 2011 32(7), 1456-1465
     doi.org/10.1002/jcc.21759
  5. Helmich-Paris, B.; de Souza, B.; Neese, F.; Izsák, R.
     An improved chain of spheres for exchange algorithm
     J. Chem. Phys. 2021 155(10), 104109
     doi.org/10.1063/5.0058766
  6. Neese, F.
     The SHARK Integral Generation and Digestion System
     J. Comp. Chem. 2022 44(3), 381
     doi.org/10.1002/jcc.26942

List of suggested additional citations. These are papers that are important in the 'surrounding' of 
of this run, or papers that preceded the highly important papers. If you like your results we are grateful for a citation.

  1. Izsak, R.; Neese, F.
     An overlap fitted chain of spheres exchange method
     J. Chem. Phys. 2011 135 , 144105
     doi.org/10.1063/1.3646921
  2. Izsak, R.; Hansen, A.; Neese, F.
     The resolution of identity and chain of spheres approximations for the LPNO-CCSD singles Fock term
     Molec. Phys. 2012 110 , 2413-2417
     doi.org/10.1080/00268976.2012.687466
  3. Neese, F.
     The ORCA program system
     WIRES Comput. Molec. Sci. 2012 2(1), 73-78
     doi.org/10.1002/wcms.81
  4. Izsak, R.; Neese, F.; Klopper, W.
     Robust fitting techniques in the chain of spheres approximation to the Fock exchange: The role of the complementary space
     J. Chem. Phys. 2013 139 , 
     doi.org/10.1063/1.4819264
  5. Neese, F.
     Software update: the ORCA program system, version 4.0
     WIRES Comput. Molec. Sci. 2018 8(1), 1-6
     doi.org/10.1002/wcms.1327
  6. Neese, F.; Wennmohs, F.; Becker, U.; Riplinger, C.
     The ORCA quantum chemistry program package
     J. Chem. Phys. 2020 152(22), 224108
     doi.org/10.1063/5.0004608
  7. Neese, F.
     Software update: The ORCA program system—Version 5.0
     WIRES Comput. Molec. Sci. 2022 12(1), e1606
     doi.org/10.1002/wcms.1606

List of optional additional citations

  1. Neese, F.
     Approximate second-order SCF convergence for spin unrestricted wavefunctions
     Chem. Phys. Lett. 2000 325(1-3), 93-98
     doi.org/10.1016/s0009-2614(00)00662-x

Timings for individual modules:

Sum of individual times          ...       15.755 sec (=   0.263 min)
Startup calculation              ...        1.312 sec (=   0.022 min)   8.3 %
SCF iterations                   ...        8.805 sec (=   0.147 min)  55.9 %
Property calculations            ...        0.502 sec (=   0.008 min)   3.2 %
SCF Gradient evaluation          ...        5.136 sec (=   0.086 min)  32.6 %
                             ****ORCA TERMINATED NORMALLY****
TOTAL RUN TIME: 0 days 0 hours 0 minutes 16 seconds 329 msec
