
                                 *****************
                                 * O   R   C   A *
                                 *****************

                                            #,                                       
                                            ###                                      
                                            ####                                     
                                            #####                                    
                                            ######                                   
                                           ########,                                 
                                     ,,################,,,,,                         
                               ,,#################################,,                 
                          ,,##########################################,,             
                       ,#########################################, ''#####,          
                    ,#############################################,,   '####,        
                  ,##################################################,,,,####,       
                ,###########''''           ''''###############################       
              ,#####''   ,,,,##########,,,,          '''####'''          '####       
            ,##' ,,,,###########################,,,                        '##       
           ' ,,###''''                  '''############,,,                           
         ,,##''                                '''############,,,,        ,,,,,,###''
      ,#''                                            '''#######################'''  
     '                                                          ''''####''''         
             ,#######,   #######,   ,#######,      ##                                
            ,#'     '#,  ##    ##  ,#'     '#,    #''#        ,####,    ,#,          
            ##       ##  ##   ,#'  ##            #'  '#       #'       ,# #          
            ##       ##  #######   ##           ,######,      #####,      #          
            '#,     ,#'  ##    ##  '#,     ,#' ,#      #,     #,   #      #          
             '#######'   ##     ##  '#######'  #'      '#     '####' #    #          



                #########################################################
                #                        -***-                          #
                #          Department of theory and spectroscopy        #
                #                                                       #
                #                      Frank Neese                      #
                #                                                       #
                #     Directorship, Architecture, Infrastructure        #
                #                    SHARK, DRIVERS                     #
                #        Core code/Algorithms in most modules           #
                #                                                       #
                #        Max Planck Institute fuer Kohlenforschung      #
                #                Kaiser Wilhelm Platz 1                 #
                #                 D-45470 Muelheim/Ruhr                 #
                #                      Germany                          #
                #                                                       #
                #                  All rights reserved                  #
                #                        -***-                          #
                #########################################################


                         Program Version 6.1.0  -  RELEASE   -
                                (GIT: $679e74b$)
                          ($2025-06-10 18:02:51 +0200$)


 With contributions from (in alphabetic order):
[Max-Planck-Institut fuer Kohlenforschung]                               
  Daniel Aravena         : Magnetic Suceptibility                        
  Michael Atanasov       : Ab Initio Ligand Field Theory (pilot matlab implementation)
  Alexander A. Auer      : GIAO ZORA, VPT2 properties, NMR spectrum      
  Ute Becker             : All parallelization in ORCA, NUMFREQ, NUMCALC 
  Giovanni Bistoni       : ED, misc. LED, open-shell LED, HFLD           
  Dmytro Bykov           : pre 5.0 version of the SCF Hessian            
  Marcos Casanova-Páez   : Triplet and SCS-CIS(D). UHF-(DLPNO)-IP/EA/STEOM-CCSD. UHF-CVS-IP/STEOM-CCSD   
  Vijay G. Chilkuri      : MRCI spin determinant printing, contributions to CSF-ICE 
  Pauline Colinet        : FMM embedding                                 
  Dipayan Datta          : RHF DLPNO-CCSD density                        
  Achintya Kumar Dutta   : EOM-CC, STEOM-CC                              
  Nicolas Foglia         : Exact transition moments, OPA infrastructure, MCD improvements    
  Dmitry Ganyushin       : Spin-Orbit,Spin-Spin,Magnetic field MRCI      
  Miquel Garcia-Rates    : C-PCM and meta-GGA Hessian, CCSD/C-PCM, Gaussian charge scheme 
  Tiago L. C. Gouveia    : GS-ROHF, GS-ROCIS                             
  Yang Guo               : DLPNO-NEVPT2, F12-NEVPT2, CIM, IAO-localization        
  Andreas Hansen         : Spin unrestricted coupled pair/coupled cluster methods 
  Ingolf Harden          : AUTO-CI MPn and infrastructure                
  Benjamin Helmich-Paris : MC-RPA, TRAH-(SCF,CASSCF), AVAS, COSX integrals, SCF dyn. polar., MC-PDFT, srDFT 
  Lee Huntington         : MR-EOM, pCC                                   
  Robert Izsak           : Overlap fitted RIJCOSX, COSX-SCS-MP3, EOM     
  Riya Kayal             : Wick's Theorem for AUTO-CI, AUTO-CI UHF-CCSDT 
  Emily Kempfer          : AUTO-CI RHF CISDT and CCSDT, approximate NEVPT4
  Christian Kollmar      : KDIIS, OOCD, Brueckner-CCSD(T), CCSD density, CASPT2, CASPT2-K, improved NEVPT2 
  Axel Koslowski         : Symmetry handling                             
  Simone Kossmann        : meta-GGA functionals, TD-DFT gradient, OOMP2, (MP2 Hessian; deprecated post 5.0) 
  Lucas Lang             : DCDCAS, Hyperfine gauge corrections, ICE-SOC+SSC
  Marvin Lechner         : AUTO-CI (C++ implementation), FIC-MRCC        
  Spencer Leger          : CASSCF response                               
  Dagmar Lenk            : GEPOL surface, SMD, ORCA-2-JSON               
  Dimitrios Liakos       : Extrapolation schemes; Compound Job, Property file
  Dimitrios Manganas     : Further ROCIS development; embedding schemes. LFT, Crystal Embedding 
  Dimitrios Pantazis     : SARC Basis sets                               
  Anastasios Papadopoulos: AUTO-CI, single reference methods and gradients 
  Taras Petrenko         : pre 6.0 DFT Hessian and TD-DFT gradient,  ECA, NRVS 
  Petra Pikulova         : Analytic Raman intensities                    
  Peter Pinski           : DLPNO-MP2, DLPNO-MP2 Gradient                 
  Shashank Vittal Rao    : ES-AILFT, MagRelax                            
  Christoph Reimann      : Effective Core Potentials                     
  Marius Retegan         : Local ZFS, SOC                                
  Christoph Riplinger    : Optimizer, TS searches, QM/MM, DLPNO-CCSD(T), (RO)-DLPNO pert. Triples 
  Michael Roemelt        : Original ROCIS implementation, recursive CI coupling coefficients
  Masaaki Saitow         : Open-shell DLPNO-CCSD energy and density      
  Barbara Sandhoefer     : DKH picture change effects                    
  Yorick L. A. Schmerwitz: GMF and freeze-and-release deltaSCF, NEB S-IDPP initial path                    
  Kantharuban Sivalingam : CASSCF convergence/infrastructure, NEVPT2, NEVPT3, NEVPT4(SD), FIC-MRCI and CEPA variants
  Bernardo de Souza      : ESD, SOC TD-DFT                               
  Georgi L. Stoychev     : AutoAux, RI-MP2 NMR, DLPNO-MP2 response, X2C  
  Van Anh Tran           : RI-MP2 g-tensors                              
  Willem Van den Heuvel  : Paramagnetic NMR                              
  Zikuan Wang            : NOTCH, Electric field optimization            
  Frank Wennmohs         : Technical directorship and infrastructure     
  Hang Xu                : AUTO-CI-Response properties                   
                                                                         
[FACCTs GmbH]                                                            
  Markus Bursch, Nicolas Foglia, Miquel Garcia-Rates, Ingolf Harden, Hagen Neugebauer, Anastasios Papadopoulos, 
  Christoph Riplinger, Bernardo de Souza, Georgi L. Stoychev                                                    
                                                                 
  APM, various basis sets, CI-OPT, improved COSX, DLPNO-Multilevel,           
  DOCKER, DRACO, updates on ESD, Fragmentator, GOAT, IRC, LR-CPCM, L-BFGS, MBIS, meta-GGA TD-DFT gradient, ML-optimized integration grids, 
  MM, NACMEs, nearIR, NEB, NEB-TS, NL-DFT gradient (VV10), 2- and 3-layer-ONIOM, interface openCOSMO-RS, QMMM,   
  Crystal-QMMM, RESP, rigid body optimization, SF, symmetry and pop. for TD-DFT, various functionals, SOLVATOR                                   
                                                                         
[Other institutions]                                                     
  V. Asgeirsson          : NEB                                           
  Christoph Bannwarth    : sTDA-DFT, sTD-DFT, PBEh-3c, B97-3c, D3        
  Giovanni Bistoni       : ETS/NOCV, ADLD/ADEX, COVALED                  
  Martin Brehm           : Molecular dynamics                            
  Ronald Cardenas        : ETS/NOCV                                      
  Martina Colucci        : COVALED                                       
  Sebastian Ehlert       : rSCAN, r2SCAN, r2SCAN-3c, D4, dhf basis sets  
  Marvin Friede          : D4 for Fr, Ra, Ac-Lr                          
  Lars Goerigk           : TD-DFT with DH, B97 family of functionals     
  Stefan Grimme          : VdW corrections, initial TS optimization, DFT functionals, gCP, sTDA/sTD-DF 
  Waldemar Hujo          : DFT-NL                                        
  H. Jonsson             : NEB                                           
  Holger Kruse           : gCP                                           
  Marcel Mueller         : wB97X-3c, vDZP basis set                      
  Hagen Neugebauer       : wr2SCAN, Native XTB                           
  Gianluca Regni         : ADLD/ADEX                                     
  Tobias Risthaus        : pre 6.0 range-separated hybrid DFT and stability analysis
  Lukas Wittmann         : regularized MP2, r2SCAN double-hybrids, wr2SCAN        
                                                                         
We gratefully acknowledge several colleagues who have allowed us to      
interface, adapt or use parts of their codes:                            
  Ed Valeev, F. Pavosevic, A. Kumar             : LibInt (2-el integral package), F12 methods 
  Garnet Chan, S. Sharma, J. Yang, R. Olivares  : DMRG                   
  Ulf Ekstrom                                   : XCFun DFT Library      
  Mihaly Kallay                                 : mrcc  (arbitrary order and MRCC methods)
  Frank Weinhold                                : gennbo (NPA and NBO analysis)           
  Simon Mueller                                 : openCOSMO-RS                            
  Christopher J. Cramer and Donald G. Truhlar   : smd solvation model                     
  S Lehtola, MJT Oliveira, MAL Marques          : LibXC Library                           
  Liviu Ungur et al                             : ANISO software                          


 Your calculation uses the libint2 library for the computation of 2-el integrals
 For citations please refer to: http://libint.valeyev.net

 Your ORCA version has been built with support for libXC version: 7.0.0
 For citations please refer to: https://libxc.gitlab.io

 This ORCA versions uses:
   CBLAS   interface :  Fast vector & matrix operations
   LAPACKE interface :  Fast linear algebra routines
   SCALAPACK package :  Parallel linear algebra routines
   Shared memory     :  Shared parallel matrices
   BLAS/LAPACK       :  OpenBLAS 0.3.29  USE64BITINT DYNAMIC_ARCH NO_AFFINITY Zen SINGLE_THREADED
        Core in use  :  Zen
   Copyright (c) 2011-2014, The OpenBLAS Project


  ***********************************
  * Starting time: Wed Sep 10 13:35:33 2025
  * Host name:     wyk-Server
  * Process ID:    2292044
  * Working dir.:  /home/wyk/Documents/code/openQDC/MGMR/singlepointcalc/50/prod
  ***********************************

Your calculation utilizes the atom-pairwise dispersion correction
with the Becke-Johnson damping scheme (D3BJ)


Warning: RI is on but no J-basis has been assigned. Assigning Def2/J (nothing to worry about!)
================================================================================

----- Orbital basis set information -----
Your calculation utilizes the basis: def2-SVP
   F. Weigend and R. Ahlrichs, Phys. Chem. Chem. Phys. 7, 3297 (2005).

----- AuxJ basis set information -----
Your calculation utilizes the auxiliary basis: def2/J
   H-Rn: F. Weigend, Phys. Chem. Chem. Phys. 8, 1057 (2006).
   Fr-Lr: K. Eichkorn, F. Weigend, O. Treutler, R. Ahlrichs; Theor. Chem. Acc. 97, 119 (1997).

================================================================================
                                        WARNINGS
                       Please study these warnings very carefully!
================================================================================


================================================================================
                                       INPUT FILE
================================================================================
NAME = orca.inp
|  1> ! B3LYP def2-SVP d3 EnGrad 
|  2> %pal nprocs 6 end 
|  3> *xyz 0 1 
|  4> C   1.24987616037264 -1.09365389684075 0.59697147348989
|  5> C   0.26576009883068 0.04147119193629 0.32808405763469
|  6> C   0.67229139450311 0.76696860831531 -0.96602708518245
|  7> C   -0.03285111219211 0.35173324020117 -2.238197749609
|  8> O   1.54696481428285 1.60352111339996 -0.93858435071348
|  9> H   1.00117362800107 -1.58593263722164 1.54889025173056
| 10> H   2.27575277562448 -0.70183402992227 0.64897563211176
| 11> H   1.19492838358055 -1.84786560243443 -0.20417184563973
| 12> H   -0.00522349709166 -0.74335849151254 -2.35534290868088
| 13> H   0.43928434779389 0.84633565481623 -3.09705104890389
| 14> H   -1.09949144750553 0.62534116405364 -2.19121865591853
| 15> H   -2.01208038254577 -1.17487013387709 2.40694956585117
| 16> H   0.34881310227374 0.78724789618852 1.14149686802745
| 17> H   -2.3597814477875 -1.22752644838763 3.08391842495278
| 18> O   -1.03614414862691 -0.51856845697638 0.26292492448802
| 19> H   -1.6842936695135 0.19639582826165 0.30989344636165
| 20> *
| 21> 
| 22>                          ****END OF INPUT****
================================================================================

                     *******************************
                     * Energy+Gradient Calculation *
                     *******************************

---------------------------------
CARTESIAN COORDINATES (ANGSTROEM)
---------------------------------
  C      1.249876   -1.093654    0.596971
  C      0.265760    0.041471    0.328084
  C      0.672291    0.766969   -0.966027
  C     -0.032851    0.351733   -2.238198
  O      1.546965    1.603521   -0.938584
  H      1.001174   -1.585933    1.548890
  H      2.275753   -0.701834    0.648976
  H      1.194928   -1.847866   -0.204172
  H     -0.005223   -0.743358   -2.355343
  H      0.439284    0.846336   -3.097051
  H     -1.099491    0.625341   -2.191219
  H     -2.012080   -1.174870    2.406950
  H      0.348813    0.787248    1.141497
  H     -2.359781   -1.227526    3.083918
  O     -1.036144   -0.518568    0.262925
  H     -1.684294    0.196396    0.309893

----------------------------
CARTESIAN COORDINATES (A.U.)
----------------------------
  NO LB      ZA    FRAG     MASS         X           Y           Z
   0 C     6.0000    0    12.011    2.361924   -2.066706    1.128113
   1 C     6.0000    0    12.011    0.502214    0.078369    0.619989
   2 C     6.0000    0    12.011    1.270447    1.449361   -1.825527
   3 C     6.0000    0    12.011   -0.062080    0.664679   -4.229581
   4 O     8.0000    0    15.999    2.923340    3.030216   -1.773667
   5 H     1.0000    0     1.008    1.891944   -2.996978    2.926978
   6 H     1.0000    0     1.008    4.300549   -1.326274    1.226386
   7 H     1.0000    0     1.008    2.258087   -3.491960   -0.385829
   8 H     1.0000    0     1.008   -0.009871   -1.404744   -4.450953
   9 H     1.0000    0     1.008    0.830127    1.599343   -5.852578
  10 H     1.0000    0     1.008   -2.077738    1.181724   -4.140803
  11 H     1.0000    0     1.008   -3.802281   -2.220183    4.548475
  12 H     1.0000    0     1.008    0.659161    1.487683    2.157116
  13 H     1.0000    0     1.008   -4.459341   -2.319689    5.827761
  14 O     8.0000    0    15.999   -1.958029   -0.979952    0.496856
  15 H     1.0000    0     1.008   -3.182854    0.371134    0.585614

--------------------------------
INTERNAL COORDINATES (ANGSTROEM)
--------------------------------
 C      0   0   0     0.000000000000     0.00000000     0.00000000
 C      1   0   0     1.526202421752     0.00000000     0.00000000
 C      2   1   0     1.538290559516   109.18274482     0.00000000
 C      3   2   1     1.512634974179   117.05632780    96.49433659
 O      3   2   1     1.210630740031   119.85210780   278.38714017
 H      1   2   3     1.100154838287   109.84511733   176.96867164
 H      1   2   3     1.099386224375   110.17923873    56.58128547
 H      1   2   3     1.101673805087   110.42004050   296.16892066
 H      4   3   2     1.101686059764   110.52442479   309.65084512
 H      4   3   2     1.097803457286   109.49989560   187.41431072
 H      4   3   2     1.102175093239   110.31279492    66.54391694
 H      6   1   2     3.159895235650   113.09890309    22.90460249
 H      2   1   3     1.106671177043   108.86420861   244.34707801
 H     12   6   1     0.762860114583   131.80735992   200.96812070
 O      2   1   3     1.418747613402   107.83083606   123.07366179
 H     15   2   1     0.966166534630   108.73886910   166.34355849

---------------------------
INTERNAL COORDINATES (A.U.)
---------------------------
 C      0   0   0     0.000000000000     0.00000000     0.00000000
 C      1   0   0     2.884104602038     0.00000000     0.00000000
 C      2   1   0     2.906947871882   109.18274482     0.00000000
 C      3   2   1     2.858465841789   117.05632780    96.49433659
 O      3   2   1     2.287760547965   119.85210780   278.38714017
 H      1   2   3     2.078991349271   109.84511733   176.96867164
 H      1   2   3     2.077538879475   110.17923873    56.58128547
 H      1   2   3     2.081861780529   110.42004050   296.16892066
 H      4   3   2     2.081884938512   110.52442479   309.65084512
 H      4   3   2     2.074547883142   109.49989560   187.41431072
 H      4   3   2     2.082809077851   110.31279492    66.54391694
 H      6   1   2     5.971336607260   113.09890309    22.90460249
 H      2   1   3     2.091305444915   108.86420861   244.34707801
 H     12   6   1     1.441596695053   131.80735992   200.96812070
 O      2   1   3     2.681044442485   107.83083606   123.07366179
 H     15   2   1     1.825790150210   108.73886910   166.34355849

---------------------
BASIS SET INFORMATION
---------------------
There are 3 groups of distinct atoms

 Group   1 Type C   : 7s4p1d contracted to 3s2p1d pattern {511/31/1}
 Group   2 Type O   : 7s4p1d contracted to 3s2p1d pattern {511/31/1}
 Group   3 Type H   : 4s1p contracted to 2s1p pattern {31/1}

Atom   0C    basis set group =>   1
Atom   1C    basis set group =>   1
Atom   2C    basis set group =>   1
Atom   3C    basis set group =>   1
Atom   4O    basis set group =>   2
Atom   5H    basis set group =>   3
Atom   6H    basis set group =>   3
Atom   7H    basis set group =>   3
Atom   8H    basis set group =>   3
Atom   9H    basis set group =>   3
Atom  10H    basis set group =>   3
Atom  11H    basis set group =>   3
Atom  12H    basis set group =>   3
Atom  13H    basis set group =>   3
Atom  14O    basis set group =>   2
Atom  15H    basis set group =>   3
---------------------------------
AUXILIARY/J BASIS SET INFORMATION
---------------------------------
There are 3 groups of distinct atoms

 Group   1 Type C   : 12s5p4d2f1g contracted to 6s4p3d1f1g pattern {711111/2111/211/2/1}
 Group   2 Type O   : 12s5p4d2f1g contracted to 6s4p3d1f1g pattern {711111/2111/211/2/1}
 Group   3 Type H   : 5s2p1d contracted to 3s1p1d pattern {311/2/1}

Atom   0C    basis set group =>   1
Atom   1C    basis set group =>   1
Atom   2C    basis set group =>   1
Atom   3C    basis set group =>   1
Atom   4O    basis set group =>   2
Atom   5H    basis set group =>   3
Atom   6H    basis set group =>   3
Atom   7H    basis set group =>   3
Atom   8H    basis set group =>   3
Atom   9H    basis set group =>   3
Atom  10H    basis set group =>   3
Atom  11H    basis set group =>   3
Atom  12H    basis set group =>   3
Atom  13H    basis set group =>   3
Atom  14O    basis set group =>   2
Atom  15H    basis set group =>   3


           ************************************************************
           *        Program running with 6 parallel MPI-processes     *
           *              working on a common directory               *
           ************************************************************
------------------------------------------------------------------------------
                             ORCA STARTUP CALCULATIONS
                           -- RI-GTO INTEGRALS CHOSEN --
------------------------------------------------------------------------------
------------------------------------------------------------------------------
                   ___                                                        
                  /   \      - P O W E R E D   B Y -                         
                 /     \                                                     
                 |  |  |   _    _      __       _____    __    __             
                 |  |  |  | |  | |    /  \     |  _  \  |  |  /  |          
                  \  \/   | |  | |   /    \    | | | |  |  | /  /          
                 / \  \   | |__| |  /  /\  \   | |_| |  |  |/  /          
                |  |  |   |  __  | /  /__\  \  |    /   |      \           
                |  |  |   | |  | | |   __   |  |    \   |  |\   \          
                \     /   | |  | | |  |  |  |  | |\  \  |  | \   \       
                 \___/    |_|  |_| |__|  |__|  |_| \__\ |__|  \__/        
                                                                              
                      - O R C A' S   B I G   F R I E N D -                    
                                      &                                       
                       - I N T E G R A L  F E E D E R -                       
                                                                              
 v1 FN, 2020, v2 2021, v3 2022-2024                                           
------------------------------------------------------------------------------


----------------------
SHARK INTEGRAL PACKAGE
----------------------

Number of atoms                             ...     16
Number of basis functions                   ...    134
Number of shells                            ...     66
Maximum angular momentum                    ...      2
Integral batch strategy                     ... SHARK/LIBINT Hybrid
RI-J (if used) integral strategy            ... SPLIT-RIJ (Revised 2003 algorithm where possible)
Printlevel                                  ...      1
Contraction scheme used                     ... SEGMENTED contraction
Prescreening option                         ... SCHWARTZ
   Thresh                                   ... 2.500e-11
   Tcut                                     ... 2.500e-12
   Tpresel                                  ... 2.500e-12 
Coulomb Range Separation                    ... NOT USED
Exchange Range Separation                   ... NOT USED
Multipole approximations                    ... NOT USED
Finite Nucleus Model                        ... NOT USED
CABS basis                                  ... NOT available
Auxiliary Coulomb fitting basis             ... AVAILABLE
   # of basis functions in Aux-J            ...    404
   # of shells in Aux-J                     ...    140
   Maximum angular momentum in Aux-J        ...      4
Auxiliary J/K fitting basis                 ... NOT available
Auxiliary Correlation fitting basis         ... NOT available
Auxiliary 'external' fitting basis          ... NOT available

Checking pre-screening integrals            ... done (  0.0 sec) Dimension = 66
   => SHARK Basis and OBASIS are compatible. Storing Pre-screening
Shell pair information
Shell pair cut-off parameter TPreSel        ...   2.5e-12
Total number of shell pairs                 ...      2211
Shell pairs after pre-screening             ...      2112
Total number of primitive shell pairs       ...      7611
Primitive shell pairs kept                  ...      5537
          la=0 lb=0:    714 shell pairs
          la=1 lb=0:    794 shell pairs
          la=1 lb=1:    236 shell pairs
          la=2 lb=0:    221 shell pairs
          la=2 lb=1:    126 shell pairs
          la=2 lb=2:     21 shell pairs

Checking whether 4 symmetric matrices of dimension 134 fit in memory
:Max Core in MB      =   4096.00
 MB in use           =      5.99
 MB left             =   4090.01
 MB needed           =      0.28
 Data fit in memory  = YES
Calculating RI/J V-Matrix + Cholesky decomp.... done (  0.0 sec)
Calculating Nuclear repulsion               ... done (  0.0 sec) ENN=    258.682205495414 Eh

Diagonalization of the overlap matrix:
Smallest eigenvalue                        ... 2.180e-03
Time for diagonalization                   ...    0.002 sec
Threshold for overlap eigenvalues          ... 1.000e-07
Number of eigenvalues below threshold      ... 0
Time for construction of square roots      ...    0.001 sec
Total time needed                          ...    0.004 sec

-------------------
DFT GRID GENERATION
-------------------

General Integration Accuracy     IntAcc      ... 4.388
Radial Grid Type                 RadialGrid  ... OptM3 with GC (2021)
Angular Grid (max. ang.)         AngularGrid ... 4 (Lebedev-302)
Angular grid pruning method      GridPruning ... 4 (adaptive)
Weight generation scheme         WeightScheme... mBecke (2022)
Basis function cutoff            BFCut       ... 1.0000e-11
Integration weight cutoff        WCut        ... 1.0000e-14
Partially contracted basis set               ... off
Rotationally invariant grid construction     ... off
Angular grids for H and He will be reduced by one unit

Total number of grid points                  ...    68655
Total number of batches                      ...     1082
Average number of points per batch           ...       63
Average number of grid points per atom       ...     4291

--------------------
COSX GRID GENERATION
--------------------

GRIDX 1
-------
General Integration Accuracy     IntAcc      ... 3.816
Radial Grid Type                 RadialGrid  ... OptM3 with GC (2021)
Angular Grid (max. ang.)         AngularGrid ... 1 (Lebedev-50)
Angular grid pruning method      GridPruning ... 4 (adaptive)
Weight generation scheme         WeightScheme... mBecke (2022)
Basis function cutoff            BFCut       ... 1.0000e-11
Integration weight cutoff        WCut        ... 1.0000e-14
Partially contracted basis set               ... on
Rotationally invariant grid construction     ... off
Angular grids for H and He will be reduced by one unit

Total number of grid points                  ...     8805
Total number of batches                      ...       78
Average number of points per batch           ...      112
Average number of grid points per atom       ...      550
UseSFitting                                  ... on

GRIDX 2
-------
General Integration Accuracy     IntAcc      ... 4.020
Radial Grid Type                 RadialGrid  ... OptM3 with GC (2021)
Angular Grid (max. ang.)         AngularGrid ... 2 (Lebedev-110)
Angular grid pruning method      GridPruning ... 4 (adaptive)
Weight generation scheme         WeightScheme... mBecke (2022)
Basis function cutoff            BFCut       ... 1.0000e-11
Integration weight cutoff        WCut        ... 1.0000e-14
Partially contracted basis set               ... on
Rotationally invariant grid construction     ... off
Angular grids for H and He will be reduced by one unit

Total number of grid points                  ...    18537
Total number of batches                      ...      151
Average number of points per batch           ...      122
Average number of grid points per atom       ...     1159
UseSFitting                                  ... on

GRIDX 3
-------
General Integration Accuracy     IntAcc      ... 4.338
Radial Grid Type                 RadialGrid  ... OptM3 with GC (2021)
Angular Grid (max. ang.)         AngularGrid ... 3 (Lebedev-194)
Angular grid pruning method      GridPruning ... 4 (adaptive)
Weight generation scheme         WeightScheme... mBecke (2022)
Basis function cutoff            BFCut       ... 1.0000e-11
Integration weight cutoff        WCut        ... 1.0000e-14
Partially contracted basis set               ... on
Rotationally invariant grid construction     ... off
Angular grids for H and He will be reduced by one unit

Total number of grid points                  ...    40621
Total number of batches                      ...      325
Average number of points per batch           ...      124
Average number of grid points per atom       ...     2539
UseSFitting                                  ... on
Grids setup in   0.8 sec
Initializing property integral containers    ... done (  0.0 sec)

SHARK setup successfully completed in   0.9 seconds

Maximum memory used throughout the entire STARTUP-calculation: 19.7 MB


           ************************************************************
           *        Program running with 6 parallel MPI-processes     *
           *              working on a common directory               *
           ************************************************************
-------------------------------------------------------------------------------
                                 ORCA GUESS
                   Start orbitals & Density for SCF / CASSCF
-------------------------------------------------------------------------------

------------
SCF SETTINGS
------------
Hamiltonian:
 Density Functional     Method          .... DFT(GTOs)
 Exchange Functional    Exchange        .... B88
   X-Alpha parameter    XAlpha          ....  0.666667
   Becke's b parameter  XBeta           ....  0.004200
 Correlation Functional Correlation     .... LYP
 LDA part of GGA corr.  LDAOpt          .... VWN-5
 Gradients option       PostSCFGGA      .... off
 Hybrid DFT is turned on
   Fraction HF Exchange ScalHFX         ....  0.200000
   Scaling of DF-GGA-X  ScalDFX         ....  0.720000
   Scaling of DF-GGA-C  ScalDFC         ....  0.810000
   Scaling of DF-LDA-C  ScalLDAC        ....  1.000000
   Perturbative correction              ....  0.000000
   NL short-range parameter             ....  4.800000
 RI-approximation to the Coulomb term is turned on
   Number of AuxJ basis functions       .... 404
   RIJ-COSX (HFX calculated with COS-X)).... on


General Settings:
 Integral files         IntName         .... orca
 Hartree-Fock type      HFTyp           .... RHF
 Total Charge           Charge          ....    0
 Multiplicity           Mult            ....    1
 Number of Electrons    NEL             ....   50
 Basis Dimension        Dim             ....  134
 Nuclear Repulsion      ENuc            ....    258.6822054954 Eh

Convergence Acceleration:
 AO-DIIS                CNVDIIS         .... on
   Start iteration      DIISMaxIt       ....    12
   Startup error        DIISStart       ....  0.200000
   # of expansion vecs  DIISMaxEq       ....     5
   Bias factor          DIISBfac        ....   1.050
   Max. coefficient     DIISMaxC        ....  10.000
 MO-DIIS                CNVKDIIS        .... off
 Trust-Rad. Augm. Hess. CNVTRAH         .... auto
   Auto Start mean grad. ratio tolernc. ....  1.125000
   Auto Start start iteration           ....    50
   Auto Start num. interpolation iter.  ....    10
   Max. Number of Micro iterations      ....    24
   Max. Number of Macro iterations      .... Maxiter - #DIIS iter
   Number of Davidson start vectors     ....     2
   Converg. threshold    (grad. norm)   ....   1.000e-05
   Grad. Scal. Fac. for Micro threshold ....   0.100
   Minimum threshold for Micro iter.    ....   1.000e-02
   NR start threshold (gradient norm)   ....   1.000e-04
   Initial trust radius                 ....   0.400
   Minimum AH scaling param. (alpha)    ....   1.000
   Maximum AH scaling param. (alpha)    .... 1000.000
   Quad. conv. algorithm                .... NR
   White noise on init. David. guess    .... on
   Maximum white noise                  ....   0.010
   Pseudo random numbers                .... off
   Inactive MOs                         .... canonical
   Orbital update algorithm             .... Taylor
   Preconditioner                       .... Diag
   Full preconditioner red. dimension   ....   250
 SOSCF                 CNVSOSCF           .... on
   Start iteration     SOSCFMaxIt         ....   150
   Startup grad/error  SOSCFStart         ....  0.003300
   Hessian update      SOSCFHessUp        .... L-BFGS
   Autom. constraints  SOSCFAutoConstrain .... off
 Level Shifting         CNVShift        .... on
   Level shift para.    LevelShift      ....    0.2500
   Turn off err/grad.   ShiftErr        ....    0.0010
 Zerner damping         CNVZerner       .... off
 Static damping         CNVDamp         .... on
   Fraction old density DampFac         ....    0.7000
   Max. Damping (<1)    DampMax         ....    0.9800
   Min. Damping (>=0)   DampMin         ....    0.0000
   Turn off err/grad.   DampErr         ....    0.1000

SCF Procedure:
 Maximum # iterations   MaxIter         ....   125
 SCF integral mode      SCFMode         .... Direct
   Integral package                     .... SHARK and LIBINT hybrid scheme
 Reset frequency        DirectResetFreq ....    20
 Integral Threshold     Thresh          ....  2.500e-11 Eh
 Primitive CutOff       TCut            ....  2.500e-12 Eh

Convergence Tolerance:
 Convergence Check Mode ConvCheckMode   .... Total+1el-Energy
 Convergence forced     ConvForced      .... 0
 Energy Change          TolE            ....  1.000e-08 Eh
 1-El. energy change                    ....  1.000e-05 Eh
 Orbital Gradient       TolG            ....  1.000e-05
 Orbital Rotation angle TolX            ....  1.000e-05
 DIIS Error             TolErr          ....  5.000e-07

------------------------------
INITIAL GUESS: MODEL POTENTIAL
------------------------------
Loading Hartree-Fock densities                     ... done
Calculating cut-offs                               ... done
Initializing the effective Hamiltonian             ... done
Setting up the integral package (SHARK)            ... done
Starting the Coulomb interaction                   ... done (   0.0 sec)
Making the grid                                    ... done (   0.1 sec)
Mapping shells                                     ... done
Starting the XC term evaluation                    ... done (   0.0 sec)
  promolecular density results
     # of electrons  =     49.994819527
     EX              =    -39.868561603
     EC              =     -1.648507626
     EX+EC           =    -41.517069229
Transforming the Hamiltonian                       ... done (   0.0 sec)
Diagonalizing the Hamiltonian                      ... done (   0.0 sec)
Back transforming the eigenvectors                 ... done (   0.0 sec)
Now organizing SCF variables                       ... done
                      ------------------
                      INITIAL GUESS DONE (   0.2 sec)
                      ------------------
             **** ENERGY FILE WAS UPDATED (orca.en.tmp) ****
Finished Guess after   0.3 sec
Maximum memory used throughout the entire GUESS-calculation: 8.5 MB


           ************************************************************
           *        Program running with 6 parallel MPI-processes     *
           *              working on a common directory               *
           ************************************************************

-------------------------------------------------------------------------------------------
                                      ORCA LEAN-SCF
                              memory conserving SCF solver
-------------------------------------------------------------------------------------------

----------------------------------------D-I-I-S--------------------------------------------
Iteration    Energy (Eh)           Delta-E    RMSDP     MaxDP     DIISErr   Damp  Time(sec)
-------------------------------------------------------------------------------------------
               ***  Starting incremental Fock matrix formation  ***
    1    -308.2138895450729592     0.00e+00  1.16e-02  8.83e-02  2.44e-01  0.700   0.7
    2    -308.3253097518739310    -1.11e-01  7.59e-03  6.04e-02  9.86e-02  0.700   0.5
                               ***Turning on AO-DIIS***
    3    -308.3652055016488589    -3.99e-02  2.71e-03  1.88e-02  3.79e-02  0.700   0.4
    4    -308.3902209941746264    -2.50e-02  4.10e-03  2.92e-02  1.72e-02  0.000   0.4
    5    -308.4459894924629566    -5.58e-02  1.03e-03  8.67e-03  7.72e-03  0.000   0.4
                              *** Initializing SOSCF ***
---------------------------------------S-O-S-C-F--------------------------------------
Iteration    Energy (Eh)           Delta-E    RMSDP     MaxDP     MaxGrad    Time(sec)
--------------------------------------------------------------------------------------
    6    -308.4463155274333417    -3.26e-04  3.23e-04  2.55e-03  1.67e-03     0.4
               *** Restarting incremental Fock matrix formation ***
    7    -308.4463389185553410    -2.34e-05  2.21e-04  2.00e-03  1.96e-04     0.8
    8    -308.4463398535825149    -9.35e-07  5.80e-05  5.28e-04  1.17e-04     0.6
    9    -308.4463411284587551    -1.27e-06  2.95e-05  2.18e-04  3.51e-05     0.6
   10    -308.4463411280926834     3.66e-10  1.03e-05  9.91e-05  4.33e-05     0.6
                 **** Energy Check signals convergence ****

               *****************************************************
               *                     SUCCESS                       *
               *           SCF CONVERGED AFTER  10 CYCLES          *
               *****************************************************

Recomputing exchange energy using gridx3       ... done (    1.147 sec)
Old exchange energy                            :     -8.123548786 Eh
New exchange energy                            :     -8.123527533 Eh
Exchange energy change after final integration :      0.000021253 Eh
Total energy after final integration           :   -308.446319926 Eh
             **** ENERGY FILE WAS UPDATED (orca.en.tmp) ****

----------------
TOTAL SCF ENERGY
----------------

Total Energy       :       -308.44631992555799 Eh           -8393.25107 eV

Components:
Nuclear Repulsion  :        258.68220549541417 Eh            7039.10067 eV
Electronic Energy  :       -567.12854667411705 Eh          -15432.35232 eV
One Electron Energy:       -931.59920955192467 Eh          -25350.10327 eV
Two Electron Energy:        364.47066287780763 Eh            9917.75095 eV

Virial components:
Potential Energy   :       -614.03384394820546 Eh          -16708.71035 eV
Kinetic Energy     :        305.58752402264747 Eh            8315.45928 eV
Virial Ratio       :          2.00935508055198

DFT components:
N(Alpha)           :       25.000042756781 electrons
N(Beta)            :       25.000042756781 electrons
N(Total)           :       50.000085513562 electrons
E(X)               :      -32.270539223658 Eh       
E(C)               :       -1.954844752871 Eh       
E(XC)              :      -34.225383976529 Eh       

---------------
SCF CONVERGENCE
---------------

  Last Energy change         ...   -3.6607e-10  Tolerance :   1.0000e-08
  Last MAX-Density change    ...    9.9121e-05  Tolerance :   1.0000e-07
  Last RMS-Density change    ...    1.0321e-05  Tolerance :   5.0000e-09
  Last DIIS Error            ...    1.6700e-03  Tolerance :   5.0000e-07
  Last Orbital Gradient      ...    4.3289e-05  Tolerance :   1.0000e-05
  Last Orbital Rotation      ...    1.9205e-05  Tolerance :   1.0000e-05


----------------
ORBITAL ENERGIES
----------------

  NO   OCC          E(Eh)            E(eV) 
   0   2.0000     -19.148857      -521.0669 
   1   2.0000     -19.125025      -520.4184 
   2   2.0000     -10.270837      -279.4837 
   3   2.0000     -10.245384      -278.7911 
   4   2.0000     -10.193010      -277.3659 
   5   2.0000     -10.189538      -277.2714 
   6   2.0000      -1.037207       -28.2238 
   7   2.0000      -1.021588       -27.7988 
   8   2.0000      -0.768282       -20.9060 
   9   2.0000      -0.731510       -19.9054 
  10   2.0000      -0.633800       -17.2466 
  11   2.0000      -0.552812       -15.0428 
  12   2.0000      -0.523173       -14.2363 
  13   2.0000      -0.475927       -12.9506 
  14   2.0000      -0.452332       -12.3086 
  15   2.0000      -0.428638       -11.6638 
  16   2.0000      -0.417865       -11.3707 
  17   2.0000      -0.410178       -11.1615 
  18   2.0000      -0.404808       -11.0154 
  19   2.0000      -0.393480       -10.7071 
  20   2.0000      -0.374985       -10.2039 
  21   2.0000      -0.363928        -9.9030 
  22   2.0000      -0.340786        -9.2733 
  23   2.0000      -0.309312        -8.4168 
  24   2.0000      -0.242998        -6.6123 
  25   0.0000      -0.022195        -0.6040 
  26   0.0000       0.033106         0.9008 
  27   0.0000       0.073001         1.9865 
  28   0.0000       0.084291         2.2937 
  29   0.0000       0.105924         2.8824 
  30   0.0000       0.117778         3.2049 
  31   0.0000       0.130653         3.5552 
  32   0.0000       0.135175         3.6783 
  33   0.0000       0.146376         3.9831 
  34   0.0000       0.170165         4.6304 
  35   0.0000       0.186227         5.0675 
*Only the first 10 virtual orbitals were printed.

                    ********************************
                    * MULLIKEN POPULATION ANALYSIS *
                    ********************************

-----------------------
MULLIKEN ATOMIC CHARGES
-----------------------
   0 C :    0.037060
   1 C :    0.125677
   2 C :   -0.052458
   3 C :    0.060856
   4 O :   -0.197449
   5 H :    0.031154
   6 H :    0.030072
   7 H :    0.014219
   8 H :    0.037031
   9 H :    0.030483
  10 H :    0.023844
  11 H :    0.011604
  12 H :    0.007172
  13 H :   -0.040749
  14 O :   -0.290812
  15 H :    0.172297
Sum of atomic charges:    0.0000000

--------------------------------
MULLIKEN REDUCED ORBITAL CHARGES
--------------------------------
  0 C s       :     2.988876  s :     2.988876
      pz      :     1.009163  p :     2.946660
      px      :     0.965144
      py      :     0.972353
      dz2     :     0.005496  d :     0.027405
      dxz     :     0.001737
      dyz     :     0.009068
      dx2y2   :     0.004504
      dxy     :     0.006600

  1 C s       :     3.038863  s :     3.038863
      pz      :     0.988533  p :     2.766726
      px      :     0.782544
      py      :     0.995648
      dz2     :     0.010183  d :     0.068735
      dxz     :     0.012843
      dyz     :     0.013504
      dx2y2   :     0.015480
      dxy     :     0.016725

  2 C s       :     3.206709  s :     3.206709
      pz      :     1.037219  p :     2.751940
      px      :     0.859723
      py      :     0.854998
      dz2     :     0.013837  d :     0.093808
      dxz     :     0.023527
      dyz     :     0.022992
      dx2y2   :     0.019270
      dxy     :     0.014182

  3 C s       :     2.935821  s :     2.935821
      pz      :     0.980756  p :     2.978398
      px      :     0.994504
      py      :     1.003138
      dz2     :     0.006550  d :     0.024925
      dxz     :     0.005236
      dyz     :     0.003945
      dx2y2   :     0.007075
      dxy     :     0.002118

  4 O s       :     3.742854  s :     3.742854
      pz      :     1.789110  p :     4.436356
      px      :     1.321234
      py      :     1.326012
      dz2     :     0.002207  d :     0.018239
      dxz     :     0.002123
      dyz     :     0.001988
      dx2y2   :     0.005864
      dxy     :     0.006057

  5 H s       :     0.945647  s :     0.945647
      pz      :     0.011826  p :     0.023199
      px      :     0.005009
      py      :     0.006363

  6 H s       :     0.946747  s :     0.946747
      pz      :     0.004926  p :     0.023181
      px      :     0.012854
      py      :     0.005401

  7 H s       :     0.962563  s :     0.962563
      pz      :     0.009519  p :     0.023218
      px      :     0.004642
      py      :     0.009058

  8 H s       :     0.939035  s :     0.939035
      pz      :     0.004426  p :     0.023934
      px      :     0.005209
      py      :     0.014299

  9 H s       :     0.946920  s :     0.946920
      pz      :     0.009763  p :     0.022597
      px      :     0.006325
      py      :     0.006509

 10 H s       :     0.951960  s :     0.951960
      pz      :     0.004604  p :     0.024196
      px      :     0.013613
      py      :     0.005979

 11 H s       :     0.977413  s :     0.977413
      pz      :     0.008556  p :     0.010983
      px      :     0.002340
      py      :     0.000087

 12 H s       :     0.972702  s :     0.972702
      pz      :     0.009271  p :     0.020126
      px      :     0.002226
      py      :     0.008629

 13 H s       :     1.031769  s :     1.031769
      pz      :     0.007074  p :     0.008980
      px      :     0.001846
      py      :     0.000060

 14 O s       :     3.734856  s :     3.734856
      pz      :     1.866964  p :     4.543148
      px      :     1.184228
      py      :     1.491956
      dz2     :     0.002106  d :     0.012808
      dxz     :     0.001060
      dyz     :     0.001257
      dx2y2   :     0.002080
      dxy     :     0.006304

 15 H s       :     0.759270  s :     0.759270
      pz      :     0.019797  p :     0.068433
      px      :     0.024123
      py      :     0.024512



                     *******************************
                     * LOEWDIN POPULATION ANALYSIS *
                     *******************************

----------------------
LOEWDIN ATOMIC CHARGES
----------------------
   0 C :   -0.044903
   1 C :    0.032926
   2 C :    0.065102
   3 C :   -0.077455
   4 O :   -0.146107
   5 H :    0.032785
   6 H :    0.034899
   7 H :    0.026700
   8 H :    0.043938
   9 H :    0.035548
  10 H :    0.040475
  11 H :   -0.001325
  12 H :    0.019552
  13 H :   -0.020693
  14 O :   -0.120351
  15 H :    0.078907

-------------------------------
LOEWDIN REDUCED ORBITAL CHARGES
-------------------------------
  0 C s       :     2.845172  s :     2.845172
      pz      :     1.064395  p :     3.129499
      px      :     1.040742
      py      :     1.024363
      dz2     :     0.014241  d :     0.070231
      dxz     :     0.003907
      dyz     :     0.022657
      dx2y2   :     0.011356
      dxy     :     0.018070

  1 C s       :     2.860612  s :     2.860612
      pz      :     1.053386  p :     2.952273
      px      :     0.859951
      py      :     1.038936
      dz2     :     0.023631  d :     0.154188
      dxz     :     0.027065
      dyz     :     0.034786
      dx2y2   :     0.029420
      dxy     :     0.039285

  2 C s       :     2.901815  s :     2.901815
      pz      :     1.038049  p :     2.820243
      px      :     0.897086
      py      :     0.885108
      dz2     :     0.031326  d :     0.212839
      dxz     :     0.056952
      dyz     :     0.054160
      dx2y2   :     0.034709
      dxy     :     0.035693

  3 C s       :     2.848861  s :     2.848861
      pz      :     1.040983  p :     3.161265
      px      :     1.056898
      py      :     1.063384
      dz2     :     0.018102  d :     0.067330
      dxz     :     0.014678
      dyz     :     0.010614
      dx2y2   :     0.018397
      dxy     :     0.005539

  4 O s       :     3.546472  s :     3.546472
      pz      :     1.788197  p :     4.568263
      px      :     1.393483
      py      :     1.386582
      dz2     :     0.004470  d :     0.031372
      dxz     :     0.003694
      dyz     :     0.003390
      dx2y2   :     0.007035
      dxy     :     0.012784

  5 H s       :     0.902303  s :     0.902303
      pz      :     0.033353  p :     0.064912
      px      :     0.013423
      py      :     0.018136

  6 H s       :     0.899907  s :     0.899907
      pz      :     0.012233  p :     0.065194
      px      :     0.037491
      py      :     0.015470

  7 H s       :     0.908595  s :     0.908595
      pz      :     0.026620  p :     0.064705
      px      :     0.012111
      py      :     0.025973

  8 H s       :     0.889918  s :     0.889918
      pz      :     0.012741  p :     0.066144
      px      :     0.012788
      py      :     0.040615

  9 H s       :     0.898722  s :     0.898722
      pz      :     0.030823  p :     0.065730
      px      :     0.017199
      py      :     0.017709

 10 H s       :     0.893368  s :     0.893368
      pz      :     0.013136  p :     0.066157
      px      :     0.038815
      py      :     0.014207

 11 H s       :     0.970219  s :     0.970219
      pz      :     0.024379  p :     0.031107
      px      :     0.006519
      py      :     0.000209

 12 H s       :     0.914012  s :     0.914012
      pz      :     0.030399  p :     0.066436
      px      :     0.010258
      py      :     0.025779

 13 H s       :     0.995702  s :     0.995702
      pz      :     0.019684  p :     0.024991
      px      :     0.005167
      py      :     0.000140

 14 O s       :     3.450634  s :     3.450634
      pz      :     1.835473  p :     4.645387
      px      :     1.248701
      py      :     1.561213
      dz2     :     0.004079  d :     0.024329
      dxz     :     0.002022
      dyz     :     0.000939
      dx2y2   :     0.003979
      dxy     :     0.013311

 15 H s       :     0.741794  s :     0.741794
      pz      :     0.051618  p :     0.179299
      px      :     0.055629
      py      :     0.072053



                      *****************************
                      * MAYER POPULATION ANALYSIS *
                      *****************************

  NA   - Mulliken gross atomic population
  ZA   - Total nuclear charge
  QA   - Mulliken gross atomic charge
  VA   - Mayer's total valence
  BVA  - Mayer's bonded valence
  FA   - Mayer's free valence

  ATOM       NA         ZA         QA         VA         BVA        FA
  0 C      5.9629     6.0000     0.0371     3.9802     3.9802     0.0000
  1 C      5.8743     6.0000     0.1257     3.9614     3.9614     0.0000
  2 C      6.0525     6.0000    -0.0525     4.2146     4.2146    -0.0000
  3 C      5.9391     6.0000     0.0609     3.8527     3.8527    -0.0000
  4 O      8.1974     8.0000    -0.1974     2.2699     2.2699     0.0000
  5 H      0.9688     1.0000     0.0312     0.9934     0.9934     0.0000
  6 H      0.9699     1.0000     0.0301     0.9982     0.9982     0.0000
  7 H      0.9858     1.0000     0.0142     1.0001     1.0001     0.0000
  8 H      0.9630     1.0000     0.0370     1.0013     1.0013    -0.0000
  9 H      0.9695     1.0000     0.0305     1.0116     1.0116    -0.0000
 10 H      0.9762     1.0000     0.0238     1.0085     1.0085     0.0000
 11 H      0.9884     1.0000     0.0116     1.0386     1.0386    -0.0000
 12 H      0.9928     1.0000     0.0072     0.9935     0.9935     0.0000
 13 H      1.0407     1.0000    -0.0407     0.9853     0.9853    -0.0000
 14 O      8.2908     8.0000    -0.2908     2.1163     2.1163     0.0000
 15 H      0.8277     1.0000     0.1723     1.0063     1.0063     0.0000

  Mayer bond orders larger than 0.100000
B(  0-C ,  1-C ) :   1.0751 B(  0-C ,  5-H ) :   0.9628 B(  0-C ,  6-H ) :   0.9613 
B(  0-C ,  7-H ) :   0.9588 B(  1-C ,  2-C ) :   0.9014 B(  1-C , 12-H ) :   0.9188 
B(  1-C , 14-O ) :   1.0282 B(  2-C ,  3-C ) :   1.0259 B(  2-C ,  4-O ) :   2.1633 
B(  3-C ,  8-H ) :   0.9457 B(  3-C ,  9-H ) :   0.9516 B(  3-C , 10-H ) :   0.9364 
B( 11-H , 13-H ) :   0.9774 B( 14-O , 15-H ) :   0.9692 

-------
TIMINGS
-------

Total SCF time: 0 days 0 hours 0 min 7 sec 

Total time                  ....       7.472 sec
Sum of individual times     ....       6.888 sec  ( 92.2%)

SCF preparation             ....       0.182 sec  (  2.4%)
Fock matrix formation       ....       6.502 sec  ( 87.0%)
  Startup                   ....       0.005 sec  (  0.1% of F)
  Split-RI-J                ....       0.545 sec  (  8.4% of F)
  Chain of spheres X        ....       5.137 sec  ( 79.0% of F)
  XC integration            ....       1.231 sec  ( 18.9% of F)
    XC Preparation          ....       0.000 sec  (  0.0% of XC)
    Basis function eval.    ....       0.393 sec  ( 31.9% of XC)
    Density eval.           ....       0.222 sec  ( 18.0% of XC)
    XC-Functional eval.     ....       0.076 sec  (  6.2% of XC)
    XC-Potential eval.      ....       0.243 sec  ( 19.8% of XC)
Diagonalization             ....       0.000 sec  (  0.0%)
Density matrix formation    ....       0.025 sec  (  0.3%)
Total Energy calculation    ....       0.013 sec  (  0.2%)
Population analysis         ....       0.015 sec  (  0.2%)
Orbital Transformation      ....       0.017 sec  (  0.2%)
Orbital Orthonormalization  ....       0.000 sec  (  0.0%)
DIIS solution               ....       0.089 sec  (  1.2%)
SOSCF solution              ....       0.046 sec  (  0.6%)
Finished LeanSCF after   7.5 sec

Maximum memory used throughout the entire LEANSCF-calculation: 11.9 MB


-------------------------------------------------------------------------------
                          DFT DISPERSION CORRECTION                            
                                                                               
                              DFTD3 V3.1  Rev 1                                
                          USING Becke-Johnson damping                          
-------------------------------------------------------------------------------
The B3LYP functional is recognized
Active option DFTDOPT                   ...         4   

molecular C6(AA) [au] = 1774.343379 


            DFT-D V3
 parameters
 s6 scaling factor         :     1.0000 
 a1 scaling factor         :     0.3981 
 s8 scaling factor         :     1.9889 
 a2 scaling factor         :     4.4211 
 ad hoc parameters k1-k3   :    16.0000     1.3333    -4.0000 

 Edisp/kcal,au: -11.670230266266  -0.018597693746 
 E6   /kcal   :  -5.770476193 
 E8   /kcal   :  -5.899754073 
 % E8         :  50.553878872 

-------------------------   ----------------
Dispersion correction           -0.018597694
-------------------------   ----------------


-------------------------   --------------------
FINAL SINGLE POINT ENERGY      -308.464917619304
-------------------------   --------------------



           ************************************************************
           *        Program running with 6 parallel MPI-processes     *
           *              working on a common directory               *
           ************************************************************
------------------------------------------------------------------------------
                         ORCA SCF GRADIENT CALCULATION
------------------------------------------------------------------------------

Nuc. rep. gradient        (SHARK) ... done (  0.0 sec)
HCore & Overlap gradient  (SHARK) ... done (  0.0 sec)
Split-RIJ-J gradient      (SHARK) ... done (  0.2 sec)
done (  4.0 sec)
XC gradient                       ... done (  0.7 sec)
Dispersion correction             ... done (  0.0 sec)

-------------------
DISPERSION GRADIENT
-------------------

   1   C   :    0.000305258   -0.000317734    0.000305881
   2   C   :    0.000072336    0.000052731    0.000205015
   3   C   :    0.000067638    0.000269842   -0.000199291
   4   C   :   -0.000088939    0.000145698   -0.000554661
   5   O   :    0.000313545    0.000485116   -0.000118720
   6   H   :    0.000149836   -0.000179857    0.000145169
   7   H   :    0.000228151   -0.000142322    0.000146175
   8   H   :    0.000163989   -0.000310303    0.000087903
   9   H   :   -0.000071309   -0.000080398   -0.000347012
  10   H   :   -0.000011430    0.000041330   -0.000219145
  11   H   :   -0.000152045    0.000050194   -0.000256757
  12   H   :   -0.000360143   -0.000106452    0.000480221
  13   H   :    0.000008211    0.000136949    0.000187215
  14   H   :    0.000023487   -0.000033046   -0.000122822
  15   O   :   -0.000331559   -0.000064673    0.000154712
  16   H   :   -0.000317025    0.000052925    0.000106118

Difference to translation invariance:
           :    0.0000000000    0.0000000000    0.0000000000

Difference to rotation invariance:
           :   -0.0000000000    0.0000000000    0.0000000000

Norm of the Dispersion gradient    ...    0.0015518028
RMS gradient                       ...    0.0002239834
MAX gradient                       ...    0.0005546609

------------------
CARTESIAN GRADIENT
------------------

   1   C   :    0.000056755    0.000035549   -0.000025588
   2   C   :    0.000019090    0.000056245   -0.000069962
   3   C   :   -0.000099961   -0.000056178   -0.000061931
   4   C   :    0.000135203   -0.000069164    0.000105971
   5   O   :   -0.000114777    0.000028018    0.000008383
   6   H   :   -0.000021024   -0.000025268   -0.000033795
   7   H   :   -0.000011895   -0.000043327   -0.000027675
   8   H   :    0.000067422   -0.000085214    0.000014833
   9   H   :   -0.000009419   -0.000038145    0.000039042
  10   H   :    0.000019330    0.000089715   -0.000005559
  11   H   :    0.000005031   -0.000003916   -0.000011762
  12   H   :   -0.000082934    0.000021707    0.000022926
  13   H   :   -0.000010036    0.000026600    0.000040970
  14   H   :    0.000009852    0.000025003   -0.000034761
  15   O   :    0.000019728   -0.000010579    0.000047373
  16   H   :    0.000017633    0.000048955   -0.000008467

Difference to translation invariance:
           :    0.0000000001    0.0000000000    0.0000000000

Difference to rotation invariance:
           :   -0.0002091698   -0.0003681252   -0.0000365140

Norm of the Cartesian gradient     ...    0.0003541472
RMS gradient                       ...    0.0000511167
MAX gradient                       ...    0.0001352033

-------
TIMINGS
-------

Total SCF gradient time     ....        5.056 sec

Densities                   ....       0.000 sec  (  0.0%)
One electron gradient       ....       0.044 sec  (  0.9%)
RI-J Coulomb gradient       ....       0.236 sec  (  4.7%)
COSX gradient               ....       4.038 sec  ( 79.9%)
XC gradient                 ....       0.703 sec  ( 13.9%)

Maximum memory used throughout the entire SCFGRAD-calculation: 28.5 MB


           ************************************************************
           *        Program running with 6 parallel MPI-processes     *
           *              working on a common directory               *
           ************************************************************

------------------------------------------------------------------------------
                              ORCA PROPERTY CALCULATIONS
------------------------------------------------------------------------------

GBWName                                 ... orca.gbw
Number of atoms                         ...     16
Number of basis functions               ...    134
Max core memory                         ...   4096 MB

Electric properties:
Dipole moment                           ... YES
Quadrupole moment                       ...  NO
Static polarizability (Dipole/Dipole)   ...  NO
Static polarizability (Dipole/Quad.)    ...  NO
Static polarizability (Quad./Quad.)     ...  NO
Static polarizability (Velocity)        ...  NO
Static hyperpolarizability              ...  NO

Atomic electric properties:
Dipole moment                           ...  NO
Quadrupole moment                       ...  NO
Static polarizability                   ...  NO

Choice of electric origin               ... Center of mass
Position of electric origin             ...     0.673952     0.278723    -0.773368

General magnetic properties:
Magnetizability                         ...  NO

EPR properties:
g-Tensor (aka g-matrix)                 ...  NO
Zero-Field splitting spin-orbit         ...  NO
Zero-field splitting spin-spin          ...  NO
Hyperfine couplings                     ...  NO (   0 nuclei)
Quadrupole couplings                    ...  NO (   0 nuclei)
Contact density                         ...  NO (   0 nuclei)

NMR properties:
Chemical shifts                         ...  NO (   0 nuclei)
Spin-rotation constants                 ...  NO (   0 nuclei)
Spin-spin couplings                     ...  NO (   0 nuclei,    0 pairs)

Choice of magnetic origin               ... GIAO
Position of magnetic origin             ...     0.000000     0.000000     0.000000

Properties with geometric perturbations:
SCF Hessian                             ...  NO
IR spectrum                             ...  NO
VCD spectrum                            ...  NO
X-ray spectroscopy properties:
SCF XES/XAS/RIXS spectra                ...  NO

SCF SOC stabilization energy            ...  NO
Diagonal Born-Oppenheimer correction    ...  NO

-------------
DIPOLE MOMENT
-------------

Method             : SCF
Type of density    : Electron Density
Multiplicity       :   1
Irrep              :   0
Energy             :  -308.4463199255579866 Eh
Basis              : AO
                                X                 Y                 Z
Electronic contribution:      4.526536063       5.712721920      -5.098696889
Nuclear contribution   :     -5.132304125      -5.899771847       5.054028651
                        -----------------------------------------
Total Dipole Moment    :     -0.605768063      -0.187049927      -0.044668238
                        -----------------------------------------
Magnitude (a.u.)       :      0.635561069
Magnitude (Debye)      :      1.615467855



--------------------
Rotational spectrum 
--------------------
 
Rotational constants in cm-1:             0.149926             0.081965             0.066485 
Rotational constants in MHz :          4494.676521          2457.252128          1993.170330 

Dipole components along the rotational axes: 
x,y,z [a.u.] :     0.316097    -0.551370     0.003428 
x,y,z [Debye]:     0.803454    -1.401471     0.008713 

 

Dipole moment calculation done in   0.0 sec 

Maximum memory used throughout the entire PROP-calculation: 6.6 MB

--------------------------------
SUGGESTED CITATIONS FOR THIS RUN
--------------------------------

Below you find a list of papers that are relevant to this ORCA run
We neither can nor want to force you to cite these papers, but we appreciate if you do
You receive ORCA, which is the product of decades of hard work by many enthusiastic individuals, for free
The only thing we kindly ask in return is that you cite our papers,
We deeply appreciate it, if you show your appreciation for ORCA by not just citing the generic ORCA reference.

Please note that relegating all ORCA citations to the supporting information does *not* help us.
SI sections are not indexed - citations you put there will not count into any citation statistics
But we need these citations in order to attract the funding resources that allow us to do what we are doing

Therefore, if you are a happy ORCA user, please consider citing a few of the papers listed below in the main body of your paper

In addition to the list printed below, the program has created the file orca.bibtex that contains the list in bibtex format
You can import this file easily into all common literature databanks and citation aid programs


List of essential papers. We consider these as the minimum necessary citations

  1. Neese, F.
     Software update: the ORCA program system, version 6.0
     WIRES Comput. Molec. Sci. 2025 15(1), e70019
     doi.org/10.1002/wcms.7019

List of papers to cite with high priority. The work reported in these papers was absolutely
necessary for this run to complete.
Our perspective: the developers of density functionals and basis sets usually get cited in chemistry papers
Good! But without the algorithms to do something with them, the functionals or basis sets would not do anything.
Hence, in our opinion, the algorithm design and method developments papers are equally worthy of getting cited

  1. Neese, F.
     An improvement of the resolution of the identity approximation for the formation of the Coulomb matrix
     J. Comp. Chem. 2003 24(14), 1740-1747
     doi.org/10.1002/jcc.10318
  2. Neese, F.; Wennmohs, F.; Hansen, A.; Becker, U.
     Efficient, approximate and parallel Hartree-Fock and hybrid DFT calculations. A 'chain-of-spheres' algorithm for the Hartree-Fock exchange
     Chem. Phys. 2009 356(1-3), 98-109
     doi.org/10.1016/j.chemphys.2008.10.036
  3. Grimme, S.; Antony, J.; Ehrlich, S.; Krieg, H.
     A consistent and accurate ab initio parametrization of density functional dispersion correction (DFT-D) for the 94 elements H-Pu
     J. Chem. Phys. 2010 132 , 154104
     doi.org/10.1063/1.3382344
  4. Grimme, S.; Ehrlich, S.; Goerigk, L.
     Effect of the damping function in dispersion corrected density functional theory
     J. Comput. Chem. 2011 32(7), 1456-1465
     doi.org/10.1002/jcc.21759
  5. Helmich-Paris, B.; de Souza, B.; Neese, F.; Izsák, R.
     An improved chain of spheres for exchange algorithm
     J. Chem. Phys. 2021 155(10), 104109
     doi.org/10.1063/5.0058766
  6. Neese, F.
     The SHARK Integral Generation and Digestion System
     J. Comp. Chem. 2022 44(3), 381
     doi.org/10.1002/jcc.26942

List of suggested additional citations. These are papers that are important in the 'surrounding' of 
of this run, or papers that preceded the highly important papers. If you like your results we are grateful for a citation.

  1. Izsak, R.; Neese, F.
     An overlap fitted chain of spheres exchange method
     J. Chem. Phys. 2011 135 , 144105
     doi.org/10.1063/1.3646921
  2. Izsak, R.; Hansen, A.; Neese, F.
     The resolution of identity and chain of spheres approximations for the LPNO-CCSD singles Fock term
     Molec. Phys. 2012 110 , 2413-2417
     doi.org/10.1080/00268976.2012.687466
  3. Neese, F.
     The ORCA program system
     WIRES Comput. Molec. Sci. 2012 2(1), 73-78
     doi.org/10.1002/wcms.81
  4. Izsak, R.; Neese, F.; Klopper, W.
     Robust fitting techniques in the chain of spheres approximation to the Fock exchange: The role of the complementary space
     J. Chem. Phys. 2013 139 , 
     doi.org/10.1063/1.4819264
  5. Neese, F.
     Software update: the ORCA program system, version 4.0
     WIRES Comput. Molec. Sci. 2018 8(1), 1-6
     doi.org/10.1002/wcms.1327
  6. Neese, F.; Wennmohs, F.; Becker, U.; Riplinger, C.
     The ORCA quantum chemistry program package
     J. Chem. Phys. 2020 152(22), 224108
     doi.org/10.1063/5.0004608
  7. Neese, F.
     Software update: The ORCA program system—Version 5.0
     WIRES Comput. Molec. Sci. 2022 12(1), e1606
     doi.org/10.1002/wcms.1606

List of optional additional citations

  1. Neese, F.
     Approximate second-order SCF convergence for spin unrestricted wavefunctions
     Chem. Phys. Lett. 2000 325(1-3), 93-98
     doi.org/10.1016/s0009-2614(00)00662-x

Timings for individual modules:

Sum of individual times          ...       15.775 sec (=   0.263 min)
Startup calculation              ...        1.372 sec (=   0.023 min)   8.7 %
SCF iterations                   ...        8.469 sec (=   0.141 min)  53.7 %
Property calculations            ...        0.402 sec (=   0.007 min)   2.6 %
SCF Gradient evaluation          ...        5.531 sec (=   0.092 min)  35.1 %
                             ****ORCA TERMINATED NORMALLY****
TOTAL RUN TIME: 0 days 0 hours 0 minutes 16 seconds 383 msec
