
                                 *****************
                                 * O   R   C   A *
                                 *****************

                                            #,                                       
                                            ###                                      
                                            ####                                     
                                            #####                                    
                                            ######                                   
                                           ########,                                 
                                     ,,################,,,,,                         
                               ,,#################################,,                 
                          ,,##########################################,,             
                       ,#########################################, ''#####,          
                    ,#############################################,,   '####,        
                  ,##################################################,,,,####,       
                ,###########''''           ''''###############################       
              ,#####''   ,,,,##########,,,,          '''####'''          '####       
            ,##' ,,,,###########################,,,                        '##       
           ' ,,###''''                  '''############,,,                           
         ,,##''                                '''############,,,,        ,,,,,,###''
      ,#''                                            '''#######################'''  
     '                                                          ''''####''''         
             ,#######,   #######,   ,#######,      ##                                
            ,#'     '#,  ##    ##  ,#'     '#,    #''#        ,####,    ,#,          
            ##       ##  ##   ,#'  ##            #'  '#       #'       ,# #          
            ##       ##  #######   ##           ,######,      #####,      #          
            '#,     ,#'  ##    ##  '#,     ,#' ,#      #,     #,   #      #          
             '#######'   ##     ##  '#######'  #'      '#     '####' #    #          



                #########################################################
                #                        -***-                          #
                #          Department of theory and spectroscopy        #
                #                                                       #
                #                      Frank Neese                      #
                #                                                       #
                #     Directorship, Architecture, Infrastructure        #
                #                    SHARK, DRIVERS                     #
                #        Core code/Algorithms in most modules           #
                #                                                       #
                #        Max Planck Institute fuer Kohlenforschung      #
                #                Kaiser Wilhelm Platz 1                 #
                #                 D-45470 Muelheim/Ruhr                 #
                #                      Germany                          #
                #                                                       #
                #                  All rights reserved                  #
                #                        -***-                          #
                #########################################################


                         Program Version 6.1.0  -  RELEASE   -
                                (GIT: $679e74b$)
                          ($2025-06-10 18:02:51 +0200$)


 With contributions from (in alphabetic order):
[Max-Planck-Institut fuer Kohlenforschung]                               
  Daniel Aravena         : Magnetic Suceptibility                        
  Michael Atanasov       : Ab Initio Ligand Field Theory (pilot matlab implementation)
  Alexander A. Auer      : GIAO ZORA, VPT2 properties, NMR spectrum      
  Ute Becker             : All parallelization in ORCA, NUMFREQ, NUMCALC 
  Giovanni Bistoni       : ED, misc. LED, open-shell LED, HFLD           
  Dmytro Bykov           : pre 5.0 version of the SCF Hessian            
  Marcos Casanova-Páez   : Triplet and SCS-CIS(D). UHF-(DLPNO)-IP/EA/STEOM-CCSD. UHF-CVS-IP/STEOM-CCSD   
  Vijay G. Chilkuri      : MRCI spin determinant printing, contributions to CSF-ICE 
  Pauline Colinet        : FMM embedding                                 
  Dipayan Datta          : RHF DLPNO-CCSD density                        
  Achintya Kumar Dutta   : EOM-CC, STEOM-CC                              
  Nicolas Foglia         : Exact transition moments, OPA infrastructure, MCD improvements    
  Dmitry Ganyushin       : Spin-Orbit,Spin-Spin,Magnetic field MRCI      
  Miquel Garcia-Rates    : C-PCM and meta-GGA Hessian, CCSD/C-PCM, Gaussian charge scheme 
  Tiago L. C. Gouveia    : GS-ROHF, GS-ROCIS                             
  Yang Guo               : DLPNO-NEVPT2, F12-NEVPT2, CIM, IAO-localization        
  Andreas Hansen         : Spin unrestricted coupled pair/coupled cluster methods 
  Ingolf Harden          : AUTO-CI MPn and infrastructure                
  Benjamin Helmich-Paris : MC-RPA, TRAH-(SCF,CASSCF), AVAS, COSX integrals, SCF dyn. polar., MC-PDFT, srDFT 
  Lee Huntington         : MR-EOM, pCC                                   
  Robert Izsak           : Overlap fitted RIJCOSX, COSX-SCS-MP3, EOM     
  Riya Kayal             : Wick's Theorem for AUTO-CI, AUTO-CI UHF-CCSDT 
  Emily Kempfer          : AUTO-CI RHF CISDT and CCSDT, approximate NEVPT4
  Christian Kollmar      : KDIIS, OOCD, Brueckner-CCSD(T), CCSD density, CASPT2, CASPT2-K, improved NEVPT2 
  Axel Koslowski         : Symmetry handling                             
  Simone Kossmann        : meta-GGA functionals, TD-DFT gradient, OOMP2, (MP2 Hessian; deprecated post 5.0) 
  Lucas Lang             : DCDCAS, Hyperfine gauge corrections, ICE-SOC+SSC
  Marvin Lechner         : AUTO-CI (C++ implementation), FIC-MRCC        
  Spencer Leger          : CASSCF response                               
  Dagmar Lenk            : GEPOL surface, SMD, ORCA-2-JSON               
  Dimitrios Liakos       : Extrapolation schemes; Compound Job, Property file
  Dimitrios Manganas     : Further ROCIS development; embedding schemes. LFT, Crystal Embedding 
  Dimitrios Pantazis     : SARC Basis sets                               
  Anastasios Papadopoulos: AUTO-CI, single reference methods and gradients 
  Taras Petrenko         : pre 6.0 DFT Hessian and TD-DFT gradient,  ECA, NRVS 
  Petra Pikulova         : Analytic Raman intensities                    
  Peter Pinski           : DLPNO-MP2, DLPNO-MP2 Gradient                 
  Shashank Vittal Rao    : ES-AILFT, MagRelax                            
  Christoph Reimann      : Effective Core Potentials                     
  Marius Retegan         : Local ZFS, SOC                                
  Christoph Riplinger    : Optimizer, TS searches, QM/MM, DLPNO-CCSD(T), (RO)-DLPNO pert. Triples 
  Michael Roemelt        : Original ROCIS implementation, recursive CI coupling coefficients
  Masaaki Saitow         : Open-shell DLPNO-CCSD energy and density      
  Barbara Sandhoefer     : DKH picture change effects                    
  Yorick L. A. Schmerwitz: GMF and freeze-and-release deltaSCF, NEB S-IDPP initial path                    
  Kantharuban Sivalingam : CASSCF convergence/infrastructure, NEVPT2, NEVPT3, NEVPT4(SD), FIC-MRCI and CEPA variants
  Bernardo de Souza      : ESD, SOC TD-DFT                               
  Georgi L. Stoychev     : AutoAux, RI-MP2 NMR, DLPNO-MP2 response, X2C  
  Van Anh Tran           : RI-MP2 g-tensors                              
  Willem Van den Heuvel  : Paramagnetic NMR                              
  Zikuan Wang            : NOTCH, Electric field optimization            
  Frank Wennmohs         : Technical directorship and infrastructure     
  Hang Xu                : AUTO-CI-Response properties                   
                                                                         
[FACCTs GmbH]                                                            
  Markus Bursch, Nicolas Foglia, Miquel Garcia-Rates, Ingolf Harden, Hagen Neugebauer, Anastasios Papadopoulos, 
  Christoph Riplinger, Bernardo de Souza, Georgi L. Stoychev                                                    
                                                                 
  APM, various basis sets, CI-OPT, improved COSX, DLPNO-Multilevel,           
  DOCKER, DRACO, updates on ESD, Fragmentator, GOAT, IRC, LR-CPCM, L-BFGS, MBIS, meta-GGA TD-DFT gradient, ML-optimized integration grids, 
  MM, NACMEs, nearIR, NEB, NEB-TS, NL-DFT gradient (VV10), 2- and 3-layer-ONIOM, interface openCOSMO-RS, QMMM,   
  Crystal-QMMM, RESP, rigid body optimization, SF, symmetry and pop. for TD-DFT, various functionals, SOLVATOR                                   
                                                                         
[Other institutions]                                                     
  V. Asgeirsson          : NEB                                           
  Christoph Bannwarth    : sTDA-DFT, sTD-DFT, PBEh-3c, B97-3c, D3        
  Giovanni Bistoni       : ETS/NOCV, ADLD/ADEX, COVALED                  
  Martin Brehm           : Molecular dynamics                            
  Ronald Cardenas        : ETS/NOCV                                      
  Martina Colucci        : COVALED                                       
  Sebastian Ehlert       : rSCAN, r2SCAN, r2SCAN-3c, D4, dhf basis sets  
  Marvin Friede          : D4 for Fr, Ra, Ac-Lr                          
  Lars Goerigk           : TD-DFT with DH, B97 family of functionals     
  Stefan Grimme          : VdW corrections, initial TS optimization, DFT functionals, gCP, sTDA/sTD-DF 
  Waldemar Hujo          : DFT-NL                                        
  H. Jonsson             : NEB                                           
  Holger Kruse           : gCP                                           
  Marcel Mueller         : wB97X-3c, vDZP basis set                      
  Hagen Neugebauer       : wr2SCAN, Native XTB                           
  Gianluca Regni         : ADLD/ADEX                                     
  Tobias Risthaus        : pre 6.0 range-separated hybrid DFT and stability analysis
  Lukas Wittmann         : regularized MP2, r2SCAN double-hybrids, wr2SCAN        
                                                                         
We gratefully acknowledge several colleagues who have allowed us to      
interface, adapt or use parts of their codes:                            
  Ed Valeev, F. Pavosevic, A. Kumar             : LibInt (2-el integral package), F12 methods 
  Garnet Chan, S. Sharma, J. Yang, R. Olivares  : DMRG                   
  Ulf Ekstrom                                   : XCFun DFT Library      
  Mihaly Kallay                                 : mrcc  (arbitrary order and MRCC methods)
  Frank Weinhold                                : gennbo (NPA and NBO analysis)           
  Simon Mueller                                 : openCOSMO-RS                            
  Christopher J. Cramer and Donald G. Truhlar   : smd solvation model                     
  S Lehtola, MJT Oliveira, MAL Marques          : LibXC Library                           
  Liviu Ungur et al                             : ANISO software                          


 Your calculation uses the libint2 library for the computation of 2-el integrals
 For citations please refer to: http://libint.valeyev.net

 Your ORCA version has been built with support for libXC version: 7.0.0
 For citations please refer to: https://libxc.gitlab.io

 This ORCA versions uses:
   CBLAS   interface :  Fast vector & matrix operations
   LAPACKE interface :  Fast linear algebra routines
   SCALAPACK package :  Parallel linear algebra routines
   Shared memory     :  Shared parallel matrices
   BLAS/LAPACK       :  OpenBLAS 0.3.29  USE64BITINT DYNAMIC_ARCH NO_AFFINITY Zen SINGLE_THREADED
        Core in use  :  Zen
   Copyright (c) 2011-2014, The OpenBLAS Project


  ***********************************
  * Starting time: Wed Sep 10 13:36:29 2025
  * Host name:     wyk-Server
  * Process ID:    2300093
  * Working dir.:  /home/wyk/Documents/code/openQDC/MGMR/singlepointcalc/72/prod
  ***********************************

Your calculation utilizes the atom-pairwise dispersion correction
with the Becke-Johnson damping scheme (D3BJ)


Warning: RI is on but no J-basis has been assigned. Assigning Def2/J (nothing to worry about!)
================================================================================

----- Orbital basis set information -----
Your calculation utilizes the basis: def2-SVP
   F. Weigend and R. Ahlrichs, Phys. Chem. Chem. Phys. 7, 3297 (2005).

----- AuxJ basis set information -----
Your calculation utilizes the auxiliary basis: def2/J
   H-Rn: F. Weigend, Phys. Chem. Chem. Phys. 8, 1057 (2006).
   Fr-Lr: K. Eichkorn, F. Weigend, O. Treutler, R. Ahlrichs; Theor. Chem. Acc. 97, 119 (1997).

================================================================================
                                        WARNINGS
                       Please study these warnings very carefully!
================================================================================


================================================================================
                                       INPUT FILE
================================================================================
NAME = orca.inp
|  1> ! B3LYP def2-SVP d3 EnGrad 
|  2> %pal nprocs 6 end 
|  3> *xyz 0 1 
|  4> C   -2.20302629846201 -0.59492319980253 0.63776068159273
|  5> C   -1.58141087211494 0.18849184851075 -0.48067985679662
|  6> C   -0.36984520908176 0.76207985805116 -0.50342523782703
|  7> C   0.66324192998533 0.75908225910205 0.58808170635411
|  8> C   1.89683943767384 -0.06255899732607 0.29025806985405
|  9> C   2.04367623370482 -0.91618487021653 -0.72634912933858
| 10> H   -2.20315529806041 0.29392430631687 -1.37900883986627
| 11> H   -3.15204473529516 -0.13295416963861 0.96302302788804
| 12> H   -2.45329841346766 -1.61756752365587 0.30463087302052
| 13> H   2.72625829202963 0.07124729544787 0.99715213987052
| 14> H   -1.54827751199644 -0.68081596266403 1.51686410805165
| 15> H   1.24087154670828 -1.08692485407955 -1.45009483495349
| 16> H   2.97090843622828 -1.47915956668228 -0.86428745723373
| 17> H   0.9861832740868 1.80010007716831 0.78187559941705
| 18> H   0.23258115597843 0.41313341061358 1.54431000994876
| 19> H   -0.07003296791701 1.28077108885485 -1.42212585998175
| 20> *
| 21> 
| 22>                          ****END OF INPUT****
================================================================================

                     *******************************
                     * Energy+Gradient Calculation *
                     *******************************

---------------------------------
CARTESIAN COORDINATES (ANGSTROEM)
---------------------------------
  C     -2.203026   -0.594923    0.637761
  C     -1.581411    0.188492   -0.480680
  C     -0.369845    0.762080   -0.503425
  C      0.663242    0.759082    0.588082
  C      1.896839   -0.062559    0.290258
  C      2.043676   -0.916185   -0.726349
  H     -2.203155    0.293924   -1.379009
  H     -3.152045   -0.132954    0.963023
  H     -2.453298   -1.617568    0.304631
  H      2.726258    0.071247    0.997152
  H     -1.548278   -0.680816    1.516864
  H      1.240872   -1.086925   -1.450095
  H      2.970908   -1.479160   -0.864287
  H      0.986183    1.800100    0.781876
  H      0.232581    0.413133    1.544310
  H     -0.070033    1.280771   -1.422126

----------------------------
CARTESIAN COORDINATES (A.U.)
----------------------------
  NO LB      ZA    FRAG     MASS         X           Y           Z
   0 C     6.0000    0    12.011   -4.163116   -1.124242    1.205193
   1 C     6.0000    0    12.011   -2.988433    0.356198   -0.908353
   2 C     6.0000    0    12.011   -0.698906    1.440122   -0.951336
   3 C     6.0000    0    12.011    1.253346    1.434458    1.111313
   4 C     6.0000    0    12.011    3.584507   -0.118219    0.548508
   5 C     6.0000    0    12.011    3.861988   -1.731338   -1.372601
   6 H     1.0000    0     1.008   -4.163360    0.555436   -2.605949
   7 H     1.0000    0     1.008   -5.956501   -0.251247    1.819850
   8 H     1.0000    0     1.008   -4.636062   -3.056760    0.575669
   9 H     1.0000    0     1.008    5.151882    0.134638    1.884344
  10 H     1.0000    0     1.008   -2.925820   -1.286556    2.866458
  11 H     1.0000    0     1.008    2.344907   -2.053990   -2.740282
  12 H     1.0000    0     1.008    5.614203   -2.795206   -1.633267
  13 H     1.0000    0     1.008    1.863616    3.401696    1.477531
  14 H     1.0000    0     1.008    0.439515    0.780709    2.918323
  15 H     1.0000    0     1.008   -0.132343    2.420307   -2.687428

--------------------------------
INTERNAL COORDINATES (ANGSTROEM)
--------------------------------
 C      0   0   0     0.000000000000     0.00000000     0.00000000
 C      1   0   0     1.500351330225     0.00000000     0.00000000
 C      2   1   0     1.340675916427   127.62254382     0.00000000
 C      3   2   1     1.502885701476   127.44711157     0.04599020
 C      4   3   2     1.511805570733   114.76598061   110.58849793
 C      5   4   3     1.335562942353   125.94661317   349.11990265
 H      2   1   3     1.097577831489   115.18792432   179.88433435
 H      1   2   3     1.104466827115   110.92410553   121.31709964
 H      1   2   3     1.104270353681   110.64482493   239.09596014
 H      5   4   3     1.097970394032   115.04521363   169.65567649
 H      1   2   3     1.099498237607   112.96036583   359.90826315
 H      6   5   4     1.094283031921   121.50039874     0.06304565
 H      6   5   4     1.093493049159   121.21876607   180.52522221
 H      4   3   2     1.107052520096   109.01317562   231.73200508
 H      4   3   2     1.104319644231   111.18817602   346.87293321
 H      3   2   1     1.096785670043   117.61790460   178.67147796

---------------------------
INTERNAL COORDINATES (A.U.)
---------------------------
 C      0   0   0     0.000000000000     0.00000000     0.00000000
 C      1   0   0     2.835253118790     0.00000000     0.00000000
 C      2   1   0     2.533510316391   127.62254382     0.00000000
 C      3   2   1     2.840042386376   127.44711157     0.04599020
 C      4   3   2     2.856898496421   114.76598061   110.58849793
 C      5   4   3     2.523848195661   125.94661317   349.11990265
 H      2   1   3     2.074121512178   115.18792432   179.88433435
 H      1   2   3     2.087139827248   110.92410553   121.31709964
 H      1   2   3     2.086768546265   110.64482493   239.09596014
 H      5   4   3     2.074863347874   115.04521363   169.65567649
 H      1   2   3     2.077750553807   112.96036583   359.90826315
 H      6   5   4     2.067895243327   121.50039874     0.06304565
 H      6   5   4     2.066402392258   121.21876607   180.52522221
 H      4   3   2     2.092026078848   109.01317562   231.73200508
 H      4   3   2     2.086861691906   111.18817602   346.87293321
 H      3   2   1     2.072624543991   117.61790460   178.67147796

---------------------
BASIS SET INFORMATION
---------------------
There are 2 groups of distinct atoms

 Group   1 Type C   : 7s4p1d contracted to 3s2p1d pattern {511/31/1}
 Group   2 Type H   : 4s1p contracted to 2s1p pattern {31/1}

Atom   0C    basis set group =>   1
Atom   1C    basis set group =>   1
Atom   2C    basis set group =>   1
Atom   3C    basis set group =>   1
Atom   4C    basis set group =>   1
Atom   5C    basis set group =>   1
Atom   6H    basis set group =>   2
Atom   7H    basis set group =>   2
Atom   8H    basis set group =>   2
Atom   9H    basis set group =>   2
Atom  10H    basis set group =>   2
Atom  11H    basis set group =>   2
Atom  12H    basis set group =>   2
Atom  13H    basis set group =>   2
Atom  14H    basis set group =>   2
Atom  15H    basis set group =>   2
---------------------------------
AUXILIARY/J BASIS SET INFORMATION
---------------------------------
There are 2 groups of distinct atoms

 Group   1 Type C   : 12s5p4d2f1g contracted to 6s4p3d1f1g pattern {711111/2111/211/2/1}
 Group   2 Type H   : 5s2p1d contracted to 3s1p1d pattern {311/2/1}

Atom   0C    basis set group =>   1
Atom   1C    basis set group =>   1
Atom   2C    basis set group =>   1
Atom   3C    basis set group =>   1
Atom   4C    basis set group =>   1
Atom   5C    basis set group =>   1
Atom   6H    basis set group =>   2
Atom   7H    basis set group =>   2
Atom   8H    basis set group =>   2
Atom   9H    basis set group =>   2
Atom  10H    basis set group =>   2
Atom  11H    basis set group =>   2
Atom  12H    basis set group =>   2
Atom  13H    basis set group =>   2
Atom  14H    basis set group =>   2
Atom  15H    basis set group =>   2


           ************************************************************
           *        Program running with 6 parallel MPI-processes     *
           *              working on a common directory               *
           ************************************************************
------------------------------------------------------------------------------
                             ORCA STARTUP CALCULATIONS
                           -- RI-GTO INTEGRALS CHOSEN --
------------------------------------------------------------------------------
------------------------------------------------------------------------------
                   ___                                                        
                  /   \      - P O W E R E D   B Y -                         
                 /     \                                                     
                 |  |  |   _    _      __       _____    __    __             
                 |  |  |  | |  | |    /  \     |  _  \  |  |  /  |          
                  \  \/   | |  | |   /    \    | | | |  |  | /  /          
                 / \  \   | |__| |  /  /\  \   | |_| |  |  |/  /          
                |  |  |   |  __  | /  /__\  \  |    /   |      \           
                |  |  |   | |  | | |   __   |  |    \   |  |\   \          
                \     /   | |  | | |  |  |  |  | |\  \  |  | \   \       
                 \___/    |_|  |_| |__|  |__|  |_| \__\ |__|  \__/        
                                                                              
                      - O R C A' S   B I G   F R I E N D -                    
                                      &                                       
                       - I N T E G R A L  F E E D E R -                       
                                                                              
 v1 FN, 2020, v2 2021, v3 2022-2024                                           
------------------------------------------------------------------------------


----------------------
SHARK INTEGRAL PACKAGE
----------------------

Number of atoms                             ...     16
Number of basis functions                   ...    134
Number of shells                            ...     66
Maximum angular momentum                    ...      2
Integral batch strategy                     ... SHARK/LIBINT Hybrid
RI-J (if used) integral strategy            ... SPLIT-RIJ (Revised 2003 algorithm where possible)
Printlevel                                  ...      1
Contraction scheme used                     ... SEGMENTED contraction
Prescreening option                         ... SCHWARTZ
   Thresh                                   ... 2.500e-11
   Tcut                                     ... 2.500e-12
   Tpresel                                  ... 2.500e-12 
Coulomb Range Separation                    ... NOT USED
Exchange Range Separation                   ... NOT USED
Multipole approximations                    ... NOT USED
Finite Nucleus Model                        ... NOT USED
CABS basis                                  ... NOT available
Auxiliary Coulomb fitting basis             ... AVAILABLE
   # of basis functions in Aux-J            ...    404
   # of shells in Aux-J                     ...    140
   Maximum angular momentum in Aux-J        ...      4
Auxiliary J/K fitting basis                 ... NOT available
Auxiliary Correlation fitting basis         ... NOT available
Auxiliary 'external' fitting basis          ... NOT available

Checking pre-screening integrals            ... done (  0.0 sec) Dimension = 66
   => SHARK Basis and OBASIS are compatible. Storing Pre-screening
Shell pair information
Shell pair cut-off parameter TPreSel        ...   2.5e-12
Total number of shell pairs                 ...      2211
Shell pairs after pre-screening             ...      2121
Total number of primitive shell pairs       ...      7611
Primitive shell pairs kept                  ...      5587
          la=0 lb=0:    716 shell pairs
          la=1 lb=0:    797 shell pairs
          la=1 lb=1:    242 shell pairs
          la=2 lb=0:    218 shell pairs
          la=2 lb=1:    127 shell pairs
          la=2 lb=2:     21 shell pairs

Checking whether 4 symmetric matrices of dimension 134 fit in memory
:Max Core in MB      =   4096.00
 MB in use           =      6.01
 MB left             =   4089.99
 MB needed           =      0.28
 Data fit in memory  = YES
Calculating RI/J V-Matrix + Cholesky decomp.... done (  0.0 sec)
Calculating Nuclear repulsion               ... done (  0.0 sec) ENN=    217.124035144584 Eh

Diagonalization of the overlap matrix:
Smallest eigenvalue                        ... 1.212e-03
Time for diagonalization                   ...    0.003 sec
Threshold for overlap eigenvalues          ... 1.000e-07
Number of eigenvalues below threshold      ... 0
Time for construction of square roots      ...    0.001 sec
Total time needed                          ...    0.005 sec

-------------------
DFT GRID GENERATION
-------------------

General Integration Accuracy     IntAcc      ... 4.388
Radial Grid Type                 RadialGrid  ... OptM3 with GC (2021)
Angular Grid (max. ang.)         AngularGrid ... 4 (Lebedev-302)
Angular grid pruning method      GridPruning ... 4 (adaptive)
Weight generation scheme         WeightScheme... mBecke (2022)
Basis function cutoff            BFCut       ... 1.0000e-11
Integration weight cutoff        WCut        ... 1.0000e-14
Partially contracted basis set               ... off
Rotationally invariant grid construction     ... off
Angular grids for H and He will be reduced by one unit

Total number of grid points                  ...    68503
Total number of batches                      ...     1079
Average number of points per batch           ...       63
Average number of grid points per atom       ...     4281

--------------------
COSX GRID GENERATION
--------------------

GRIDX 1
-------
General Integration Accuracy     IntAcc      ... 3.816
Radial Grid Type                 RadialGrid  ... OptM3 with GC (2021)
Angular Grid (max. ang.)         AngularGrid ... 1 (Lebedev-50)
Angular grid pruning method      GridPruning ... 4 (adaptive)
Weight generation scheme         WeightScheme... mBecke (2022)
Basis function cutoff            BFCut       ... 1.0000e-11
Integration weight cutoff        WCut        ... 1.0000e-14
Partially contracted basis set               ... on
Rotationally invariant grid construction     ... off
Angular grids for H and He will be reduced by one unit

Total number of grid points                  ...     8802
Total number of batches                      ...       79
Average number of points per batch           ...      111
Average number of grid points per atom       ...      550
UseSFitting                                  ... on

GRIDX 2
-------
General Integration Accuracy     IntAcc      ... 4.020
Radial Grid Type                 RadialGrid  ... OptM3 with GC (2021)
Angular Grid (max. ang.)         AngularGrid ... 2 (Lebedev-110)
Angular grid pruning method      GridPruning ... 4 (adaptive)
Weight generation scheme         WeightScheme... mBecke (2022)
Basis function cutoff            BFCut       ... 1.0000e-11
Integration weight cutoff        WCut        ... 1.0000e-14
Partially contracted basis set               ... on
Rotationally invariant grid construction     ... off
Angular grids for H and He will be reduced by one unit

Total number of grid points                  ...    18493
Total number of batches                      ...      153
Average number of points per batch           ...      120
Average number of grid points per atom       ...     1156
UseSFitting                                  ... on

GRIDX 3
-------
General Integration Accuracy     IntAcc      ... 4.338
Radial Grid Type                 RadialGrid  ... OptM3 with GC (2021)
Angular Grid (max. ang.)         AngularGrid ... 3 (Lebedev-194)
Angular grid pruning method      GridPruning ... 4 (adaptive)
Weight generation scheme         WeightScheme... mBecke (2022)
Basis function cutoff            BFCut       ... 1.0000e-11
Integration weight cutoff        WCut        ... 1.0000e-14
Partially contracted basis set               ... on
Rotationally invariant grid construction     ... off
Angular grids for H and He will be reduced by one unit

Total number of grid points                  ...    40467
Total number of batches                      ...      324
Average number of points per batch           ...      124
Average number of grid points per atom       ...     2529
UseSFitting                                  ... on
Grids setup in   0.9 sec
Initializing property integral containers    ... done (  0.0 sec)

SHARK setup successfully completed in   1.1 seconds

Maximum memory used throughout the entire STARTUP-calculation: 18.2 MB


           ************************************************************
           *        Program running with 6 parallel MPI-processes     *
           *              working on a common directory               *
           ************************************************************
-------------------------------------------------------------------------------
                                 ORCA GUESS
                   Start orbitals & Density for SCF / CASSCF
-------------------------------------------------------------------------------

------------
SCF SETTINGS
------------
Hamiltonian:
 Density Functional     Method          .... DFT(GTOs)
 Exchange Functional    Exchange        .... B88
   X-Alpha parameter    XAlpha          ....  0.666667
   Becke's b parameter  XBeta           ....  0.004200
 Correlation Functional Correlation     .... LYP
 LDA part of GGA corr.  LDAOpt          .... VWN-5
 Gradients option       PostSCFGGA      .... off
 Hybrid DFT is turned on
   Fraction HF Exchange ScalHFX         ....  0.200000
   Scaling of DF-GGA-X  ScalDFX         ....  0.720000
   Scaling of DF-GGA-C  ScalDFC         ....  0.810000
   Scaling of DF-LDA-C  ScalLDAC        ....  1.000000
   Perturbative correction              ....  0.000000
   NL short-range parameter             ....  4.800000
 RI-approximation to the Coulomb term is turned on
   Number of AuxJ basis functions       .... 404
   RIJ-COSX (HFX calculated with COS-X)).... on


General Settings:
 Integral files         IntName         .... orca
 Hartree-Fock type      HFTyp           .... RHF
 Total Charge           Charge          ....    0
 Multiplicity           Mult            ....    1
 Number of Electrons    NEL             ....   46
 Basis Dimension        Dim             ....  134
 Nuclear Repulsion      ENuc            ....    217.1240351446 Eh

Convergence Acceleration:
 AO-DIIS                CNVDIIS         .... on
   Start iteration      DIISMaxIt       ....    12
   Startup error        DIISStart       ....  0.200000
   # of expansion vecs  DIISMaxEq       ....     5
   Bias factor          DIISBfac        ....   1.050
   Max. coefficient     DIISMaxC        ....  10.000
 MO-DIIS                CNVKDIIS        .... off
 Trust-Rad. Augm. Hess. CNVTRAH         .... auto
   Auto Start mean grad. ratio tolernc. ....  1.125000
   Auto Start start iteration           ....    50
   Auto Start num. interpolation iter.  ....    10
   Max. Number of Micro iterations      ....    24
   Max. Number of Macro iterations      .... Maxiter - #DIIS iter
   Number of Davidson start vectors     ....     2
   Converg. threshold    (grad. norm)   ....   1.000e-05
   Grad. Scal. Fac. for Micro threshold ....   0.100
   Minimum threshold for Micro iter.    ....   1.000e-02
   NR start threshold (gradient norm)   ....   1.000e-04
   Initial trust radius                 ....   0.400
   Minimum AH scaling param. (alpha)    ....   1.000
   Maximum AH scaling param. (alpha)    .... 1000.000
   Quad. conv. algorithm                .... NR
   White noise on init. David. guess    .... on
   Maximum white noise                  ....   0.010
   Pseudo random numbers                .... off
   Inactive MOs                         .... canonical
   Orbital update algorithm             .... Taylor
   Preconditioner                       .... Diag
   Full preconditioner red. dimension   ....   250
 SOSCF                 CNVSOSCF           .... on
   Start iteration     SOSCFMaxIt         ....   150
   Startup grad/error  SOSCFStart         ....  0.003300
   Hessian update      SOSCFHessUp        .... L-BFGS
   Autom. constraints  SOSCFAutoConstrain .... off
 Level Shifting         CNVShift        .... on
   Level shift para.    LevelShift      ....    0.2500
   Turn off err/grad.   ShiftErr        ....    0.0010
 Zerner damping         CNVZerner       .... off
 Static damping         CNVDamp         .... on
   Fraction old density DampFac         ....    0.7000
   Max. Damping (<1)    DampMax         ....    0.9800
   Min. Damping (>=0)   DampMin         ....    0.0000
   Turn off err/grad.   DampErr         ....    0.1000

SCF Procedure:
 Maximum # iterations   MaxIter         ....   125
 SCF integral mode      SCFMode         .... Direct
   Integral package                     .... SHARK and LIBINT hybrid scheme
 Reset frequency        DirectResetFreq ....    20
 Integral Threshold     Thresh          ....  2.500e-11 Eh
 Primitive CutOff       TCut            ....  2.500e-12 Eh

Convergence Tolerance:
 Convergence Check Mode ConvCheckMode   .... Total+1el-Energy
 Convergence forced     ConvForced      .... 0
 Energy Change          TolE            ....  1.000e-08 Eh
 1-El. energy change                    ....  1.000e-05 Eh
 Orbital Gradient       TolG            ....  1.000e-05
 Orbital Rotation angle TolX            ....  1.000e-05
 DIIS Error             TolErr          ....  5.000e-07

------------------------------
INITIAL GUESS: MODEL POTENTIAL
------------------------------
Loading Hartree-Fock densities                     ... done
Calculating cut-offs                               ... done
Initializing the effective Hamiltonian             ... done
Setting up the integral package (SHARK)            ... done
Starting the Coulomb interaction                   ... done (   0.0 sec)
Making the grid                                    ... done (   0.1 sec)
Mapping shells                                     ... done
Starting the XC term evaluation                    ... done (   0.0 sec)
  promolecular density results
     # of electrons  =     45.991704968
     EX              =    -33.750649725
     EC              =     -1.465234184
     EX+EC           =    -35.215883909
Transforming the Hamiltonian                       ... done (   0.0 sec)
Diagonalizing the Hamiltonian                      ... done (   0.0 sec)
Back transforming the eigenvectors                 ... done (   0.0 sec)
Now organizing SCF variables                       ... done
                      ------------------
                      INITIAL GUESS DONE (   0.2 sec)
                      ------------------
             **** ENERGY FILE WAS UPDATED (orca.en.tmp) ****
Finished Guess after   0.3 sec
Maximum memory used throughout the entire GUESS-calculation: 8.5 MB


           ************************************************************
           *        Program running with 6 parallel MPI-processes     *
           *              working on a common directory               *
           ************************************************************

-------------------------------------------------------------------------------------------
                                      ORCA LEAN-SCF
                              memory conserving SCF solver
-------------------------------------------------------------------------------------------

----------------------------------------D-I-I-S--------------------------------------------
Iteration    Energy (Eh)           Delta-E    RMSDP     MaxDP     DIISErr   Damp  Time(sec)
-------------------------------------------------------------------------------------------
               ***  Starting incremental Fock matrix formation  ***
    1    -234.0927269415215619     0.00e+00  8.17e-03  7.42e-02  1.55e-01  0.700   0.8
    2    -234.1773098386960896    -8.46e-02  6.02e-03  4.61e-02  8.46e-02  0.700   0.5
                               ***Turning on AO-DIIS***
    3    -234.2138834041519999    -3.66e-02  2.54e-03  1.32e-02  3.48e-02  0.700   0.5
    4    -234.2346514282525050    -2.08e-02  4.49e-03  2.20e-02  1.81e-02  0.000   0.5
    5    -234.2789221846675787    -4.43e-02  7.41e-04  3.68e-03  5.14e-03  0.000   0.5
                              *** Initializing SOSCF ***
---------------------------------------S-O-S-C-F--------------------------------------
Iteration    Energy (Eh)           Delta-E    RMSDP     MaxDP     MaxGrad    Time(sec)
--------------------------------------------------------------------------------------
    6    -234.2791604150651779    -2.38e-04  2.82e-04  1.73e-03  1.37e-03     0.5
               *** Restarting incremental Fock matrix formation ***
    7    -234.2791903488864023    -2.99e-05  1.84e-04  1.17e-03  1.87e-04     0.8
    8    -234.2791908844284876    -5.36e-07  4.35e-05  4.47e-04  1.91e-04     0.6
    9    -234.2791919147645672    -1.03e-06  3.21e-05  2.58e-04  6.78e-05     0.6
   10    -234.2791918697648725     4.50e-08  1.53e-05  1.46e-04  7.45e-05     0.6
   11    -234.2791919956309243    -1.26e-07  4.40e-06  2.87e-05  5.90e-06     0.6
   12    -234.2791919960168912    -3.86e-10  1.86e-06  1.79e-05  1.03e-05     0.5
                 **** Energy Check signals convergence ****

               *****************************************************
               *                     SUCCESS                       *
               *           SCF CONVERGED AFTER  12 CYCLES          *
               *****************************************************

Recomputing exchange energy using gridx3       ... done (    1.204 sec)
Old exchange energy                            :     -6.904501872 Eh
New exchange energy                            :     -6.904522390 Eh
Exchange energy change after final integration :     -0.000020518 Eh
Total energy after final integration           :   -234.279212514 Eh
             **** ENERGY FILE WAS UPDATED (orca.en.tmp) ****

----------------
TOTAL SCF ENERGY
----------------

Total Energy       :       -234.27921251425036 Eh           -6375.06147 eV

Components:
Nuclear Repulsion  :        217.12403514458373 Eh            5908.24537 eV
Electronic Energy  :       -451.40322714117644 Eh          -12283.30628 eV
One Electron Energy:       -743.64388136481330 Eh          -20235.57877 eV
Two Electron Energy:        292.24065422363685 Eh            7952.27249 eV

Virial components:
Potential Energy   :       -465.72586784624946 Eh          -12673.04515 eV
Kinetic Energy     :        231.44665533199912 Eh            6297.98367 eV
Virial Ratio       :          2.01223848829523

DFT components:
N(Alpha)           :       22.999974890731 electrons
N(Beta)            :       22.999974890731 electrons
N(Total)           :       45.999949781462 electrons
E(X)               :      -27.364284161637 Eh       
E(C)               :       -1.743148539707 Eh       
E(XC)              :      -29.107432701344 Eh       

---------------
SCF CONVERGENCE
---------------

  Last Energy change         ...    3.8597e-10  Tolerance :   1.0000e-08
  Last MAX-Density change    ...    1.7863e-05  Tolerance :   1.0000e-07
  Last RMS-Density change    ...    1.8569e-06  Tolerance :   5.0000e-09
  Last DIIS Error            ...    1.3720e-03  Tolerance :   5.0000e-07
  Last Orbital Gradient      ...    1.0298e-05  Tolerance :   1.0000e-05
  Last Orbital Rotation      ...    1.7365e-05  Tolerance :   1.0000e-05


----------------
ORBITAL ENERGIES
----------------

  NO   OCC          E(Eh)            E(eV) 
   0   2.0000     -10.188510      -277.2435 
   1   2.0000     -10.185565      -277.1633 
   2   2.0000     -10.182323      -277.0751 
   3   2.0000     -10.182217      -277.0722 
   4   2.0000     -10.178437      -276.9693 
   5   2.0000     -10.172800      -276.8160 
   6   2.0000      -0.801006       -21.7965 
   7   2.0000      -0.756185       -20.5768 
   8   2.0000      -0.695789       -18.9334 
   9   2.0000      -0.649358       -17.6699 
  10   2.0000      -0.554000       -15.0751 
  11   2.0000      -0.506088       -13.7713 
  12   2.0000      -0.475986       -12.9522 
  13   2.0000      -0.461175       -12.5492 
  14   2.0000      -0.423358       -11.5202 
  15   2.0000      -0.406315       -11.0564 
  16   2.0000      -0.397748       -10.8233 
  17   2.0000      -0.383894       -10.4463 
  18   2.0000      -0.364438        -9.9169 
  19   2.0000      -0.347582        -9.4582 
  20   2.0000      -0.324875        -8.8403 
  21   2.0000      -0.255244        -6.9456 
  22   2.0000      -0.243474        -6.6253 
  23   0.0000       0.017869         0.4862 
  24   0.0000       0.023745         0.6461 
  25   0.0000       0.067002         1.8232 
  26   0.0000       0.081173         2.2088 
  27   0.0000       0.091535         2.4908 
  28   0.0000       0.111571         3.0360 
  29   0.0000       0.123517         3.3611 
  30   0.0000       0.139341         3.7917 
  31   0.0000       0.142211         3.8698 
  32   0.0000       0.158001         4.2994 
  33   0.0000       0.167806         4.5662 
*Only the first 10 virtual orbitals were printed.

                    ********************************
                    * MULLIKEN POPULATION ANALYSIS *
                    ********************************

-----------------------
MULLIKEN ATOMIC CHARGES
-----------------------
   0 C :    0.071920
   1 C :   -0.101943
   2 C :   -0.093071
   3 C :    0.171484
   4 C :   -0.118374
   5 C :   -0.012045
   6 H :   -0.006264
   7 H :    0.020257
   8 H :    0.020867
   9 H :   -0.001831
  10 H :    0.008112
  11 H :    0.017358
  12 H :    0.014252
  13 H :    0.008091
  14 H :    0.006921
  15 H :   -0.005734
Sum of atomic charges:   -0.0000000

--------------------------------
MULLIKEN REDUCED ORBITAL CHARGES
--------------------------------
  0 C s       :     2.933158  s :     2.933158
      pz      :     0.977295  p :     2.965950
      px      :     0.995968
      py      :     0.992687
      dz2     :     0.005490  d :     0.028972
      dxz     :     0.007790
      dyz     :     0.005073
      dx2y2   :     0.006077
      dxy     :     0.004541

  1 C s       :     3.147667  s :     3.147667
      pz      :     0.936270  p :     2.918564
      px      :     0.989135
      py      :     0.993158
      dz2     :     0.006593  d :     0.035711
      dxz     :     0.011215
      dyz     :     0.004026
      dx2y2   :     0.007153
      dxy     :     0.006725

  2 C s       :     3.155794  s :     3.155794
      pz      :     0.928838  p :     2.902427
      px      :     0.982945
      py      :     0.990643
      dz2     :     0.006659  d :     0.034850
      dxz     :     0.010158
      dyz     :     0.004640
      dx2y2   :     0.006850
      dxy     :     0.006543

  3 C s       :     2.875548  s :     2.875548
      pz      :     0.988894  p :     2.916364
      px      :     0.949491
      py      :     0.977979
      dz2     :     0.007916  d :     0.036604
      dxz     :     0.009071
      dyz     :     0.004201
      dx2y2   :     0.007813
      dxy     :     0.007602

  4 C s       :     3.182506  s :     3.182506
      pz      :     0.961028  p :     2.900036
      px      :     0.953615
      py      :     0.985393
      dz2     :     0.007062  d :     0.035833
      dxz     :     0.010054
      dyz     :     0.004996
      dx2y2   :     0.007342
      dxy     :     0.006379

  5 C s       :     3.093884  s :     3.093884
      pz      :     0.996642  p :     2.891697
      px      :     0.909469
      py      :     0.985586
      dz2     :     0.006309  d :     0.026464
      dxz     :     0.006974
      dyz     :     0.004247
      dx2y2   :     0.004090
      dxy     :     0.004844

  6 H s       :     0.983879  s :     0.983879
      pz      :     0.010720  p :     0.022385
      px      :     0.007285
      py      :     0.004380

  7 H s       :     0.956429  s :     0.956429
      pz      :     0.005404  p :     0.023314
      px      :     0.011441
      py      :     0.006469

  8 H s       :     0.955743  s :     0.955743
      pz      :     0.005224  p :     0.023390
      px      :     0.005497
      py      :     0.012669

  9 H s       :     0.979592  s :     0.979592
      pz      :     0.008316  p :     0.022240
      px      :     0.009867
      py      :     0.004056

 10 H s       :     0.968493  s :     0.968493
      pz      :     0.010360  p :     0.023395
      px      :     0.008162
      py      :     0.004873

 11 H s       :     0.958911  s :     0.958911
      pz      :     0.008762  p :     0.023731
      px      :     0.010294
      py      :     0.004675

 12 H s       :     0.962418  s :     0.962418
      pz      :     0.004422  p :     0.023330
      px      :     0.011704
      py      :     0.007204

 13 H s       :     0.969059  s :     0.969059
      pz      :     0.004880  p :     0.022850
      px      :     0.005056
      py      :     0.012914

 14 H s       :     0.969961  s :     0.969961
      pz      :     0.011265  p :     0.023119
      px      :     0.005860
      py      :     0.005993

 15 H s       :     0.983111  s :     0.983111
      pz      :     0.011126  p :     0.022623
      px      :     0.004575
      py      :     0.006923



                     *******************************
                     * LOEWDIN POPULATION ANALYSIS *
                     *******************************

----------------------
LOEWDIN ATOMIC CHARGES
----------------------
   0 C :   -0.057642
   1 C :   -0.042340
   2 C :   -0.041222
   3 C :   -0.036375
   4 C :   -0.026382
   5 C :   -0.068106
   6 H :    0.022930
   7 H :    0.032475
   8 H :    0.033786
   9 H :    0.021973
  10 H :    0.024800
  11 H :    0.020994
  12 H :    0.022586
  13 H :    0.036770
  14 H :    0.032097
  15 H :    0.023655

-------------------------------
LOEWDIN REDUCED ORBITAL CHARGES
-------------------------------
  0 C s       :     2.834665  s :     2.834665
      pz      :     1.047393  p :     3.149643
      px      :     1.051278
      py      :     1.050972
      dz2     :     0.013242  d :     0.073333
      dxz     :     0.020296
      dyz     :     0.013311
      dx2y2   :     0.015196
      dxy     :     0.011287

  1 C s       :     2.875679  s :     2.875679
      pz      :     1.019932  p :     3.077588
      px      :     1.062320
      py      :     0.995337
      dz2     :     0.016511  d :     0.089073
      dxz     :     0.029661
      dyz     :     0.009942
      dx2y2   :     0.016444
      dxy     :     0.016515

  2 C s       :     2.874690  s :     2.874690
      pz      :     1.021006  p :     3.078435
      px      :     1.051508
      py      :     1.005921
      dz2     :     0.016783  d :     0.088097
      dxz     :     0.027718
      dyz     :     0.011309
      dx2y2   :     0.016466
      dxy     :     0.015820

  3 C s       :     2.830517  s :     2.830517
      pz      :     1.044764  p :     3.114182
      px      :     1.026930
      py      :     1.042488
      dz2     :     0.019734  d :     0.091677
      dxz     :     0.024247
      dyz     :     0.009276
      dx2y2   :     0.018991
      dxy     :     0.019429

  4 C s       :     2.882143  s :     2.882143
      pz      :     1.041499  p :     3.055607
      px      :     1.008662
      py      :     1.005446
      dz2     :     0.016985  d :     0.088632
      dxz     :     0.024954
      dyz     :     0.013924
      dx2y2   :     0.016296
      dxy     :     0.016472

  5 C s       :     2.885228  s :     2.885228
      pz      :     1.051187  p :     3.113623
      px      :     1.033684
      py      :     1.028752
      dz2     :     0.015044  d :     0.069256
      dxz     :     0.018429
      dyz     :     0.012500
      dx2y2   :     0.009989
      dxy     :     0.013293

  6 H s       :     0.910973  s :     0.910973
      pz      :     0.032124  p :     0.066098
      px      :     0.020188
      py      :     0.013786

  7 H s       :     0.903888  s :     0.903888
      pz      :     0.014467  p :     0.063637
      px      :     0.032101
      py      :     0.017069

  8 H s       :     0.902507  s :     0.902507
      pz      :     0.014536  p :     0.063706
      px      :     0.013547
      py      :     0.035624

  9 H s       :     0.912109  s :     0.912109
      pz      :     0.023460  p :     0.065918
      px      :     0.029764
      py      :     0.012693

 10 H s       :     0.910305  s :     0.910305
      pz      :     0.029877  p :     0.064895
      px      :     0.022580
      py      :     0.012438

 11 H s       :     0.910062  s :     0.910062
      pz      :     0.025158  p :     0.068944
      px      :     0.030392
      py      :     0.013394

 12 H s       :     0.910290  s :     0.910290
      pz      :     0.012583  p :     0.067124
      px      :     0.033927
      py      :     0.020614

 13 H s       :     0.899092  s :     0.899092
      pz      :     0.013279  p :     0.064138
      px      :     0.014591
      py      :     0.036268

 14 H s       :     0.902514  s :     0.902514
      pz      :     0.032811  p :     0.065389
      px      :     0.017049
      py      :     0.015529

 15 H s       :     0.909434  s :     0.909434
      pz      :     0.033446  p :     0.066911
      px      :     0.013177
      py      :     0.020288



                      *****************************
                      * MAYER POPULATION ANALYSIS *
                      *****************************

  NA   - Mulliken gross atomic population
  ZA   - Total nuclear charge
  QA   - Mulliken gross atomic charge
  VA   - Mayer's total valence
  BVA  - Mayer's bonded valence
  FA   - Mayer's free valence

  ATOM       NA         ZA         QA         VA         BVA        FA
  0 C      5.9281     6.0000     0.0719     3.9346     3.9346    -0.0000
  1 C      6.1019     6.0000    -0.1019     4.0899     4.0899    -0.0000
  2 C      6.0931     6.0000    -0.0931     4.0807     4.0807     0.0000
  3 C      5.8285     6.0000     0.1715     3.8626     3.8626    -0.0000
  4 C      6.1184     6.0000    -0.1184     4.1133     4.1133    -0.0000
  5 C      6.0120     6.0000    -0.0120     3.9437     3.9437    -0.0000
  6 H      1.0063     1.0000    -0.0063     0.9777     0.9777    -0.0000
  7 H      0.9797     1.0000     0.0203     0.9841     0.9841    -0.0000
  8 H      0.9791     1.0000     0.0209     0.9853     0.9853    -0.0000
  9 H      1.0018     1.0000    -0.0018     0.9788     0.9788    -0.0000
 10 H      0.9919     1.0000     0.0081     0.9973     0.9973    -0.0000
 11 H      0.9826     1.0000     0.0174     0.9983     0.9983     0.0000
 12 H      0.9857     1.0000     0.0143     0.9722     0.9722     0.0000
 13 H      0.9919     1.0000     0.0081     0.9765     0.9765    -0.0000
 14 H      0.9931     1.0000     0.0069     0.9906     0.9906    -0.0000
 15 H      1.0057     1.0000    -0.0057     0.9803     0.9803    -0.0000

  Mayer bond orders larger than 0.100000
B(  0-C ,  1-C ) :   1.0853 B(  0-C ,  7-H ) :   0.9520 B(  0-C ,  8-H ) :   0.9499 
B(  0-C , 10-H ) :   0.9587 B(  1-C ,  2-C ) :   1.9535 B(  1-C ,  6-H ) :   0.9504 
B(  2-C ,  3-C ) :   1.0564 B(  2-C , 15-H ) :   0.9489 B(  3-C ,  4-C ) :   1.0208 
B(  3-C , 13-H ) :   0.9070 B(  3-C , 14-H ) :   0.9127 B(  4-C ,  5-C ) :   2.0315 
B(  4-C ,  9-H ) :   0.9590 B(  5-C , 11-H ) :   0.9319 B(  5-C , 12-H ) :   0.9495 


-------
TIMINGS
-------

Total SCF time: 0 days 0 hours 0 min 8 sec 

Total time                  ....       8.811 sec
Sum of individual times     ....       8.302 sec  ( 94.2%)

SCF preparation             ....       0.176 sec  (  2.0%)
Fock matrix formation       ....       7.876 sec  ( 89.4%)
  Startup                   ....       0.005 sec  (  0.1% of F)
  Split-RI-J                ....       0.678 sec  (  8.6% of F)
  Chain of spheres X        ....       5.944 sec  ( 75.5% of F)
  XC integration            ....       1.569 sec  ( 19.9% of F)
    XC Preparation          ....       0.000 sec  (  0.0% of XC)
    Basis function eval.    ....       0.508 sec  ( 32.4% of XC)
    Density eval.           ....       0.281 sec  ( 17.9% of XC)
    XC-Functional eval.     ....       0.097 sec  (  6.2% of XC)
    XC-Potential eval.      ....       0.315 sec  ( 20.1% of XC)
Diagonalization             ....       0.000 sec  (  0.0%)
Density matrix formation    ....       0.030 sec  (  0.3%)
Total Energy calculation    ....       0.018 sec  (  0.2%)
Population analysis         ....       0.022 sec  (  0.3%)
Orbital Transformation      ....       0.019 sec  (  0.2%)
Orbital Orthonormalization  ....       0.000 sec  (  0.0%)
DIIS solution               ....       0.095 sec  (  1.1%)
SOSCF solution              ....       0.065 sec  (  0.7%)
Finished LeanSCF after   8.8 sec

Maximum memory used throughout the entire LEANSCF-calculation: 12.0 MB


-------------------------------------------------------------------------------
                          DFT DISPERSION CORRECTION                            
                                                                               
                              DFTD3 V3.1  Rev 1                                
                          USING Becke-Johnson damping                          
-------------------------------------------------------------------------------
The B3LYP functional is recognized
Active option DFTDOPT                   ...         4   

molecular C6(AA) [au] = 2144.749809 


            DFT-D V3
 parameters
 s6 scaling factor         :     1.0000 
 a1 scaling factor         :     0.3981 
 s8 scaling factor         :     1.9889 
 a2 scaling factor         :     4.4211 
 ad hoc parameters k1-k3   :    16.0000     1.3333    -4.0000 

 Edisp/kcal,au: -13.292618903009  -0.021183134334 
 E6   /kcal   :  -6.451117041 
 E8   /kcal   :  -6.841501862 
 % E8         :  51.468427042 

-------------------------   ----------------
Dispersion correction           -0.021183134
-------------------------   ----------------


-------------------------   --------------------
FINAL SINGLE POINT ENERGY      -234.300395648585
-------------------------   --------------------



           ************************************************************
           *        Program running with 6 parallel MPI-processes     *
           *              working on a common directory               *
           ************************************************************
------------------------------------------------------------------------------
                         ORCA SCF GRADIENT CALCULATION
------------------------------------------------------------------------------

Nuc. rep. gradient        (SHARK) ... done (  0.0 sec)
HCore & Overlap gradient  (SHARK) ... done (  0.0 sec)
Split-RIJ-J gradient      (SHARK) ... done (  0.3 sec)
done (  4.4 sec)
XC gradient                       ... done (  0.9 sec)
Dispersion correction             ... done (  0.0 sec)

-------------------
DISPERSION GRADIENT
-------------------

   1   C   :   -0.000505090   -0.000195304    0.000122092
   2   C   :   -0.000642895    0.000063991   -0.000185396
   3   C   :   -0.000115235    0.000377354   -0.000208108
   4   C   :    0.000256449    0.000292639    0.000179029
   5   C   :    0.000545835   -0.000038015    0.000120750
   6   C   :    0.000602364   -0.000400527   -0.000217031
   7   H   :   -0.000163641    0.000039793   -0.000172337
   8   H   :   -0.000208149   -0.000053700    0.000095559
   9   H   :   -0.000182520   -0.000171013    0.000054046
  10   H   :    0.000208520   -0.000011478    0.000108645
  11   H   :   -0.000226807   -0.000140883    0.000205368
  12   H   :    0.000220723   -0.000229068   -0.000217227
  13   H   :    0.000133114   -0.000121778   -0.000074757
  14   H   :    0.000095663    0.000245010    0.000137478
  15   H   :    0.000079953    0.000113289    0.000275006
  16   H   :   -0.000098285    0.000229689   -0.000223116

Difference to translation invariance:
           :    0.0000000000    0.0000000000    0.0000000000

Difference to rotation invariance:
           :    0.0000000000    0.0000000000    0.0000000000

Norm of the Dispersion gradient    ...    0.0016900089
RMS gradient                       ...    0.0002439318
MAX gradient                       ...    0.0006428949

------------------
CARTESIAN GRADIENT
------------------

   1   C   :   -0.000051366   -0.000029386    0.000004853
   2   C   :   -0.000102133   -0.000060048   -0.000001331
   3   C   :    0.000123559   -0.000038336    0.000208973
   4   C   :   -0.000014037    0.000013210   -0.000013466
   5   C   :    0.000061975   -0.000076045   -0.000100997
   6   C   :   -0.000031383    0.000102109   -0.000046723
   7   H   :   -0.000006488   -0.000037040   -0.000030648
   8   H   :   -0.000016962    0.000052261   -0.000047710
   9   H   :    0.000048151    0.000014737   -0.000023307
  10   H   :    0.000035898    0.000026292    0.000110910
  11   H   :    0.000022826    0.000024400    0.000000811
  12   H   :   -0.000086256    0.000014730   -0.000049420
  13   H   :   -0.000016661   -0.000019700    0.000007456
  14   H   :   -0.000039684   -0.000021542   -0.000038012
  15   H   :    0.000039335    0.000036346   -0.000004534
  16   H   :    0.000033227   -0.000001990    0.000023144

Difference to translation invariance:
           :    0.0000000000   -0.0000000000   -0.0000000000

Difference to rotation invariance:
           :    0.0001730568    0.0001347526   -0.0000494068

Norm of the Cartesian gradient     ...    0.0003961109
RMS gradient                       ...    0.0000571737
MAX gradient                       ...    0.0002089726

-------
TIMINGS
-------

Total SCF gradient time     ....        5.557 sec

Densities                   ....       0.001 sec  (  0.0%)
One electron gradient       ....       0.045 sec  (  0.8%)
RI-J Coulomb gradient       ....       0.256 sec  (  4.6%)
COSX gradient               ....       4.351 sec  ( 78.3%)
XC gradient                 ....       0.854 sec  ( 15.4%)

Maximum memory used throughout the entire SCFGRAD-calculation: 28.5 MB


           ************************************************************
           *        Program running with 6 parallel MPI-processes     *
           *              working on a common directory               *
           ************************************************************

------------------------------------------------------------------------------
                              ORCA PROPERTY CALCULATIONS
------------------------------------------------------------------------------

GBWName                                 ... orca.gbw
Number of atoms                         ...     16
Number of basis functions               ...    134
Max core memory                         ...   4096 MB

Electric properties:
Dipole moment                           ... YES
Quadrupole moment                       ...  NO
Static polarizability (Dipole/Dipole)   ...  NO
Static polarizability (Dipole/Quad.)    ...  NO
Static polarizability (Quad./Quad.)     ...  NO
Static polarizability (Velocity)        ...  NO
Static hyperpolarizability              ...  NO

Atomic electric properties:
Dipole moment                           ...  NO
Quadrupole moment                       ...  NO
Static polarizability                   ...  NO

Choice of electric origin               ... Center of mass
Position of electric origin             ...     0.094744     0.011180    -0.030690

General magnetic properties:
Magnetizability                         ...  NO

EPR properties:
g-Tensor (aka g-matrix)                 ...  NO
Zero-Field splitting spin-orbit         ...  NO
Zero-field splitting spin-spin          ...  NO
Hyperfine couplings                     ...  NO (   0 nuclei)
Quadrupole couplings                    ...  NO (   0 nuclei)
Contact density                         ...  NO (   0 nuclei)

NMR properties:
Chemical shifts                         ...  NO (   0 nuclei)
Spin-rotation constants                 ...  NO (   0 nuclei)
Spin-spin couplings                     ...  NO (   0 nuclei,    0 pairs)

Choice of magnetic origin               ... GIAO
Position of magnetic origin             ...     0.000000     0.000000     0.000000

Properties with geometric perturbations:
SCF Hessian                             ...  NO
IR spectrum                             ...  NO
VCD spectrum                            ...  NO
X-ray spectroscopy properties:
SCF XES/XAS/RIXS spectra                ...  NO

SCF SOC stabilization energy            ...  NO
Diagonal Born-Oppenheimer correction    ...  NO

-------------
DIPOLE MOMENT
-------------

Method             : SCF
Type of density    : Electron Density
Multiplicity       :   1
Irrep              :   0
Energy             :  -234.2792125142503608 Eh
Basis              : AO
                                X                 Y                 Z
Electronic contribution:      1.533546609       1.148211822      -0.929143666
Nuclear contribution   :     -1.661855014      -1.123379235       1.083354910
                        -----------------------------------------
Total Dipole Moment    :     -0.128308405       0.024832587       0.154211244
                        -----------------------------------------
Magnitude (a.u.)       :      0.202140574
Magnitude (Debye)      :      0.513800508



--------------------
Rotational spectrum 
--------------------
 
Rotational constants in cm-1:             0.224196             0.063408             0.061495 
Rotational constants in MHz :          6721.218653          1900.923086          1843.580436 

Dipole components along the rotational axes: 
x,y,z [a.u.] :     0.141151     0.081590     0.119500 
x,y,z [Debye]:     0.358779     0.207385     0.303744 

 

Dipole moment calculation done in   0.0 sec 

Maximum memory used throughout the entire PROP-calculation: 6.7 MB

--------------------------------
SUGGESTED CITATIONS FOR THIS RUN
--------------------------------

Below you find a list of papers that are relevant to this ORCA run
We neither can nor want to force you to cite these papers, but we appreciate if you do
You receive ORCA, which is the product of decades of hard work by many enthusiastic individuals, for free
The only thing we kindly ask in return is that you cite our papers,
We deeply appreciate it, if you show your appreciation for ORCA by not just citing the generic ORCA reference.

Please note that relegating all ORCA citations to the supporting information does *not* help us.
SI sections are not indexed - citations you put there will not count into any citation statistics
But we need these citations in order to attract the funding resources that allow us to do what we are doing

Therefore, if you are a happy ORCA user, please consider citing a few of the papers listed below in the main body of your paper

In addition to the list printed below, the program has created the file orca.bibtex that contains the list in bibtex format
You can import this file easily into all common literature databanks and citation aid programs


List of essential papers. We consider these as the minimum necessary citations

  1. Neese, F.
     Software update: the ORCA program system, version 6.0
     WIRES Comput. Molec. Sci. 2025 15(1), e70019
     doi.org/10.1002/wcms.7019

List of papers to cite with high priority. The work reported in these papers was absolutely
necessary for this run to complete.
Our perspective: the developers of density functionals and basis sets usually get cited in chemistry papers
Good! But without the algorithms to do something with them, the functionals or basis sets would not do anything.
Hence, in our opinion, the algorithm design and method developments papers are equally worthy of getting cited

  1. Neese, F.
     An improvement of the resolution of the identity approximation for the formation of the Coulomb matrix
     J. Comp. Chem. 2003 24(14), 1740-1747
     doi.org/10.1002/jcc.10318
  2. Neese, F.; Wennmohs, F.; Hansen, A.; Becker, U.
     Efficient, approximate and parallel Hartree-Fock and hybrid DFT calculations. A 'chain-of-spheres' algorithm for the Hartree-Fock exchange
     Chem. Phys. 2009 356(1-3), 98-109
     doi.org/10.1016/j.chemphys.2008.10.036
  3. Grimme, S.; Antony, J.; Ehrlich, S.; Krieg, H.
     A consistent and accurate ab initio parametrization of density functional dispersion correction (DFT-D) for the 94 elements H-Pu
     J. Chem. Phys. 2010 132 , 154104
     doi.org/10.1063/1.3382344
  4. Grimme, S.; Ehrlich, S.; Goerigk, L.
     Effect of the damping function in dispersion corrected density functional theory
     J. Comput. Chem. 2011 32(7), 1456-1465
     doi.org/10.1002/jcc.21759
  5. Helmich-Paris, B.; de Souza, B.; Neese, F.; Izsák, R.
     An improved chain of spheres for exchange algorithm
     J. Chem. Phys. 2021 155(10), 104109
     doi.org/10.1063/5.0058766
  6. Neese, F.
     The SHARK Integral Generation and Digestion System
     J. Comp. Chem. 2022 44(3), 381
     doi.org/10.1002/jcc.26942

List of suggested additional citations. These are papers that are important in the 'surrounding' of 
of this run, or papers that preceded the highly important papers. If you like your results we are grateful for a citation.

  1. Izsak, R.; Neese, F.
     An overlap fitted chain of spheres exchange method
     J. Chem. Phys. 2011 135 , 144105
     doi.org/10.1063/1.3646921
  2. Izsak, R.; Hansen, A.; Neese, F.
     The resolution of identity and chain of spheres approximations for the LPNO-CCSD singles Fock term
     Molec. Phys. 2012 110 , 2413-2417
     doi.org/10.1080/00268976.2012.687466
  3. Neese, F.
     The ORCA program system
     WIRES Comput. Molec. Sci. 2012 2(1), 73-78
     doi.org/10.1002/wcms.81
  4. Izsak, R.; Neese, F.; Klopper, W.
     Robust fitting techniques in the chain of spheres approximation to the Fock exchange: The role of the complementary space
     J. Chem. Phys. 2013 139 , 
     doi.org/10.1063/1.4819264
  5. Neese, F.
     Software update: the ORCA program system, version 4.0
     WIRES Comput. Molec. Sci. 2018 8(1), 1-6
     doi.org/10.1002/wcms.1327
  6. Neese, F.; Wennmohs, F.; Becker, U.; Riplinger, C.
     The ORCA quantum chemistry program package
     J. Chem. Phys. 2020 152(22), 224108
     doi.org/10.1063/5.0004608
  7. Neese, F.
     Software update: The ORCA program system—Version 5.0
     WIRES Comput. Molec. Sci. 2022 12(1), e1606
     doi.org/10.1002/wcms.1606

List of optional additional citations

  1. Neese, F.
     Approximate second-order SCF convergence for spin unrestricted wavefunctions
     Chem. Phys. Lett. 2000 325(1-3), 93-98
     doi.org/10.1016/s0009-2614(00)00662-x

Timings for individual modules:

Sum of individual times          ...       17.682 sec (=   0.295 min)
Startup calculation              ...        1.451 sec (=   0.024 min)   8.2 %
SCF iterations                   ...        9.822 sec (=   0.164 min)  55.5 %
Property calculations            ...        0.409 sec (=   0.007 min)   2.3 %
SCF Gradient evaluation          ...        6.000 sec (=   0.100 min)  33.9 %
                             ****ORCA TERMINATED NORMALLY****
TOTAL RUN TIME: 0 days 0 hours 0 minutes 18 seconds 244 msec
