
                                 *****************
                                 * O   R   C   A *
                                 *****************

                                            #,                                       
                                            ###                                      
                                            ####                                     
                                            #####                                    
                                            ######                                   
                                           ########,                                 
                                     ,,################,,,,,                         
                               ,,#################################,,                 
                          ,,##########################################,,             
                       ,#########################################, ''#####,          
                    ,#############################################,,   '####,        
                  ,##################################################,,,,####,       
                ,###########''''           ''''###############################       
              ,#####''   ,,,,##########,,,,          '''####'''          '####       
            ,##' ,,,,###########################,,,                        '##       
           ' ,,###''''                  '''############,,,                           
         ,,##''                                '''############,,,,        ,,,,,,###''
      ,#''                                            '''#######################'''  
     '                                                          ''''####''''         
             ,#######,   #######,   ,#######,      ##                                
            ,#'     '#,  ##    ##  ,#'     '#,    #''#        ,####,    ,#,          
            ##       ##  ##   ,#'  ##            #'  '#       #'       ,# #          
            ##       ##  #######   ##           ,######,      #####,      #          
            '#,     ,#'  ##    ##  '#,     ,#' ,#      #,     #,   #      #          
             '#######'   ##     ##  '#######'  #'      '#     '####' #    #          



                #########################################################
                #                        -***-                          #
                #          Department of theory and spectroscopy        #
                #                                                       #
                #                      Frank Neese                      #
                #                                                       #
                #     Directorship, Architecture, Infrastructure        #
                #                    SHARK, DRIVERS                     #
                #        Core code/Algorithms in most modules           #
                #                                                       #
                #        Max Planck Institute fuer Kohlenforschung      #
                #                Kaiser Wilhelm Platz 1                 #
                #                 D-45470 Muelheim/Ruhr                 #
                #                      Germany                          #
                #                                                       #
                #                  All rights reserved                  #
                #                        -***-                          #
                #########################################################


                         Program Version 6.1.0  -  RELEASE   -
                                (GIT: $679e74b$)
                          ($2025-06-10 18:02:51 +0200$)


 With contributions from (in alphabetic order):
[Max-Planck-Institut fuer Kohlenforschung]                               
  Daniel Aravena         : Magnetic Suceptibility                        
  Michael Atanasov       : Ab Initio Ligand Field Theory (pilot matlab implementation)
  Alexander A. Auer      : GIAO ZORA, VPT2 properties, NMR spectrum      
  Ute Becker             : All parallelization in ORCA, NUMFREQ, NUMCALC 
  Giovanni Bistoni       : ED, misc. LED, open-shell LED, HFLD           
  Dmytro Bykov           : pre 5.0 version of the SCF Hessian            
  Marcos Casanova-Páez   : Triplet and SCS-CIS(D). UHF-(DLPNO)-IP/EA/STEOM-CCSD. UHF-CVS-IP/STEOM-CCSD   
  Vijay G. Chilkuri      : MRCI spin determinant printing, contributions to CSF-ICE 
  Pauline Colinet        : FMM embedding                                 
  Dipayan Datta          : RHF DLPNO-CCSD density                        
  Achintya Kumar Dutta   : EOM-CC, STEOM-CC                              
  Nicolas Foglia         : Exact transition moments, OPA infrastructure, MCD improvements    
  Dmitry Ganyushin       : Spin-Orbit,Spin-Spin,Magnetic field MRCI      
  Miquel Garcia-Rates    : C-PCM and meta-GGA Hessian, CCSD/C-PCM, Gaussian charge scheme 
  Tiago L. C. Gouveia    : GS-ROHF, GS-ROCIS                             
  Yang Guo               : DLPNO-NEVPT2, F12-NEVPT2, CIM, IAO-localization        
  Andreas Hansen         : Spin unrestricted coupled pair/coupled cluster methods 
  Ingolf Harden          : AUTO-CI MPn and infrastructure                
  Benjamin Helmich-Paris : MC-RPA, TRAH-(SCF,CASSCF), AVAS, COSX integrals, SCF dyn. polar., MC-PDFT, srDFT 
  Lee Huntington         : MR-EOM, pCC                                   
  Robert Izsak           : Overlap fitted RIJCOSX, COSX-SCS-MP3, EOM     
  Riya Kayal             : Wick's Theorem for AUTO-CI, AUTO-CI UHF-CCSDT 
  Emily Kempfer          : AUTO-CI RHF CISDT and CCSDT, approximate NEVPT4
  Christian Kollmar      : KDIIS, OOCD, Brueckner-CCSD(T), CCSD density, CASPT2, CASPT2-K, improved NEVPT2 
  Axel Koslowski         : Symmetry handling                             
  Simone Kossmann        : meta-GGA functionals, TD-DFT gradient, OOMP2, (MP2 Hessian; deprecated post 5.0) 
  Lucas Lang             : DCDCAS, Hyperfine gauge corrections, ICE-SOC+SSC
  Marvin Lechner         : AUTO-CI (C++ implementation), FIC-MRCC        
  Spencer Leger          : CASSCF response                               
  Dagmar Lenk            : GEPOL surface, SMD, ORCA-2-JSON               
  Dimitrios Liakos       : Extrapolation schemes; Compound Job, Property file
  Dimitrios Manganas     : Further ROCIS development; embedding schemes. LFT, Crystal Embedding 
  Dimitrios Pantazis     : SARC Basis sets                               
  Anastasios Papadopoulos: AUTO-CI, single reference methods and gradients 
  Taras Petrenko         : pre 6.0 DFT Hessian and TD-DFT gradient,  ECA, NRVS 
  Petra Pikulova         : Analytic Raman intensities                    
  Peter Pinski           : DLPNO-MP2, DLPNO-MP2 Gradient                 
  Shashank Vittal Rao    : ES-AILFT, MagRelax                            
  Christoph Reimann      : Effective Core Potentials                     
  Marius Retegan         : Local ZFS, SOC                                
  Christoph Riplinger    : Optimizer, TS searches, QM/MM, DLPNO-CCSD(T), (RO)-DLPNO pert. Triples 
  Michael Roemelt        : Original ROCIS implementation, recursive CI coupling coefficients
  Masaaki Saitow         : Open-shell DLPNO-CCSD energy and density      
  Barbara Sandhoefer     : DKH picture change effects                    
  Yorick L. A. Schmerwitz: GMF and freeze-and-release deltaSCF, NEB S-IDPP initial path                    
  Kantharuban Sivalingam : CASSCF convergence/infrastructure, NEVPT2, NEVPT3, NEVPT4(SD), FIC-MRCI and CEPA variants
  Bernardo de Souza      : ESD, SOC TD-DFT                               
  Georgi L. Stoychev     : AutoAux, RI-MP2 NMR, DLPNO-MP2 response, X2C  
  Van Anh Tran           : RI-MP2 g-tensors                              
  Willem Van den Heuvel  : Paramagnetic NMR                              
  Zikuan Wang            : NOTCH, Electric field optimization            
  Frank Wennmohs         : Technical directorship and infrastructure     
  Hang Xu                : AUTO-CI-Response properties                   
                                                                         
[FACCTs GmbH]                                                            
  Markus Bursch, Nicolas Foglia, Miquel Garcia-Rates, Ingolf Harden, Hagen Neugebauer, Anastasios Papadopoulos, 
  Christoph Riplinger, Bernardo de Souza, Georgi L. Stoychev                                                    
                                                                 
  APM, various basis sets, CI-OPT, improved COSX, DLPNO-Multilevel,           
  DOCKER, DRACO, updates on ESD, Fragmentator, GOAT, IRC, LR-CPCM, L-BFGS, MBIS, meta-GGA TD-DFT gradient, ML-optimized integration grids, 
  MM, NACMEs, nearIR, NEB, NEB-TS, NL-DFT gradient (VV10), 2- and 3-layer-ONIOM, interface openCOSMO-RS, QMMM,   
  Crystal-QMMM, RESP, rigid body optimization, SF, symmetry and pop. for TD-DFT, various functionals, SOLVATOR                                   
                                                                         
[Other institutions]                                                     
  V. Asgeirsson          : NEB                                           
  Christoph Bannwarth    : sTDA-DFT, sTD-DFT, PBEh-3c, B97-3c, D3        
  Giovanni Bistoni       : ETS/NOCV, ADLD/ADEX, COVALED                  
  Martin Brehm           : Molecular dynamics                            
  Ronald Cardenas        : ETS/NOCV                                      
  Martina Colucci        : COVALED                                       
  Sebastian Ehlert       : rSCAN, r2SCAN, r2SCAN-3c, D4, dhf basis sets  
  Marvin Friede          : D4 for Fr, Ra, Ac-Lr                          
  Lars Goerigk           : TD-DFT with DH, B97 family of functionals     
  Stefan Grimme          : VdW corrections, initial TS optimization, DFT functionals, gCP, sTDA/sTD-DF 
  Waldemar Hujo          : DFT-NL                                        
  H. Jonsson             : NEB                                           
  Holger Kruse           : gCP                                           
  Marcel Mueller         : wB97X-3c, vDZP basis set                      
  Hagen Neugebauer       : wr2SCAN, Native XTB                           
  Gianluca Regni         : ADLD/ADEX                                     
  Tobias Risthaus        : pre 6.0 range-separated hybrid DFT and stability analysis
  Lukas Wittmann         : regularized MP2, r2SCAN double-hybrids, wr2SCAN        
                                                                         
We gratefully acknowledge several colleagues who have allowed us to      
interface, adapt or use parts of their codes:                            
  Ed Valeev, F. Pavosevic, A. Kumar             : LibInt (2-el integral package), F12 methods 
  Garnet Chan, S. Sharma, J. Yang, R. Olivares  : DMRG                   
  Ulf Ekstrom                                   : XCFun DFT Library      
  Mihaly Kallay                                 : mrcc  (arbitrary order and MRCC methods)
  Frank Weinhold                                : gennbo (NPA and NBO analysis)           
  Simon Mueller                                 : openCOSMO-RS                            
  Christopher J. Cramer and Donald G. Truhlar   : smd solvation model                     
  S Lehtola, MJT Oliveira, MAL Marques          : LibXC Library                           
  Liviu Ungur et al                             : ANISO software                          


 Your calculation uses the libint2 library for the computation of 2-el integrals
 For citations please refer to: http://libint.valeyev.net

 Your ORCA version has been built with support for libXC version: 7.0.0
 For citations please refer to: https://libxc.gitlab.io

 This ORCA versions uses:
   CBLAS   interface :  Fast vector & matrix operations
   LAPACKE interface :  Fast linear algebra routines
   SCALAPACK package :  Parallel linear algebra routines
   Shared memory     :  Shared parallel matrices
   BLAS/LAPACK       :  OpenBLAS 0.3.29  USE64BITINT DYNAMIC_ARCH NO_AFFINITY Zen SINGLE_THREADED
        Core in use  :  Zen
   Copyright (c) 2011-2014, The OpenBLAS Project


  ***********************************
  * Starting time: Wed Sep 10 13:35:01 2025
  * Host name:     wyk-Server
  * Process ID:    2287299
  * Working dir.:  /home/wyk/Documents/code/openQDC/MGMR/singlepointcalc/54/react
  ***********************************

Your calculation utilizes the atom-pairwise dispersion correction
with the Becke-Johnson damping scheme (D3BJ)


Warning: RI is on but no J-basis has been assigned. Assigning Def2/J (nothing to worry about!)
================================================================================

----- Orbital basis set information -----
Your calculation utilizes the basis: def2-SVP
   F. Weigend and R. Ahlrichs, Phys. Chem. Chem. Phys. 7, 3297 (2005).

----- AuxJ basis set information -----
Your calculation utilizes the auxiliary basis: def2/J
   H-Rn: F. Weigend, Phys. Chem. Chem. Phys. 8, 1057 (2006).
   Fr-Lr: K. Eichkorn, F. Weigend, O. Treutler, R. Ahlrichs; Theor. Chem. Acc. 97, 119 (1997).

================================================================================
                                        WARNINGS
                       Please study these warnings very carefully!
================================================================================


================================================================================
                                       INPUT FILE
================================================================================
NAME = orca.inp
|  1> ! B3LYP def2-SVP d3 EnGrad 
|  2> %pal nprocs 6 end 
|  3> *xyz 0 1 
|  4> C   1.79963900415232 -0.5158765756471 0.22826842330316
|  5> O   1.17898069352929 -0.50887675312107 1.26334518092648
|  6> C   -1.74240558881911 0.63227682172289 -0.29148275960642
|  7> O   -1.20291601749182 -0.66341323464817 -0.22940581628069
|  8> H   2.91327996676335 -0.42496624117495 0.21280770853119
|  9> H   1.28360453272434 -0.613983355663 -0.75516336697496
| 10> H   -0.96985422277761 1.42347001279988 -0.39195318158148
| 11> H   -2.39171513495933 0.69213930466347 -1.17998970881522
| 12> H   -0.62254960276773 -0.70685014621982 0.54934649994336
| 13> H   -2.3650336303537 0.88708016728785 0.59047202055459
| 14> *
| 15> 
| 16>                          ****END OF INPUT****
================================================================================

                     *******************************
                     * Energy+Gradient Calculation *
                     *******************************

---------------------------------
CARTESIAN COORDINATES (ANGSTROEM)
---------------------------------
  C      1.799639   -0.515877    0.228268
  O      1.178981   -0.508877    1.263345
  C     -1.742406    0.632277   -0.291483
  O     -1.202916   -0.663413   -0.229406
  H      2.913280   -0.424966    0.212808
  H      1.283605   -0.613983   -0.755163
  H     -0.969854    1.423470   -0.391953
  H     -2.391715    0.692139   -1.179990
  H     -0.622550   -0.706850    0.549346
  H     -2.365034    0.887080    0.590472

----------------------------
CARTESIAN COORDINATES (A.U.)
----------------------------
  NO LB      ZA    FRAG     MASS         X           Y           Z
   0 C     6.0000    0    12.011    3.400825   -0.974865    0.431365
   1 O     8.0000    0    15.999    2.227951   -0.961638    2.387376
   2 C     6.0000    0    12.011   -3.292669    1.194830   -0.550823
   3 O     8.0000    0    15.999   -2.273182   -1.253669   -0.433514
   4 H     1.0000    0     1.008    5.505301   -0.803070    0.402148
   5 H     1.0000    0     1.008    2.425661   -1.160260   -1.427052
   6 H     1.0000    0     1.008   -1.832759    2.689968   -0.740684
   7 H     1.0000    0     1.008   -4.519687    1.307954   -2.229857
   8 H     1.0000    0     1.008   -1.176448   -1.335753    1.038114
   9 H     1.0000    0     1.008   -4.469266    1.676339    1.115830

--------------------------------
INTERNAL COORDINATES (ANGSTROEM)
--------------------------------
 C      0   0   0     0.000000000000     0.00000000     0.00000000
 O      1   0   0     1.206917408207     0.00000000     0.00000000
 C      2   1   0     3.500602693356    92.87355212     0.00000000
 O      3   2   1     1.404889770282    50.15262237    80.02599946
 H      1   2   3     1.117452422352   121.59359876   155.28081805
 H      1   2   3     1.114923585775   121.26300061   335.26109642
 H      3   2   1     1.110367769917    72.05116723   295.95325022
 H      3   2   1     1.102102990816   150.16449331    29.70123095
 H      4   3   2     0.972197053406   107.80869036    23.05733808
 H      3   2   1     1.109249591961   100.96241553   191.05059222

---------------------------
INTERNAL COORDINATES (A.U.)
---------------------------
 C      0   0   0     0.000000000000     0.00000000     0.00000000
 O      1   0   0     2.280743367773     0.00000000     0.00000000
 C      2   1   0     6.615180394111    92.87355212     0.00000000
 O      3   2   1     2.654856914180    50.15262237    80.02599946
 H      1   2   3     2.111679045932   121.59359876   155.28081805
 H      1   2   3     2.106900237364   121.26300061   335.26109642
 H      3   2   1     2.098290993077    72.05116723   295.95325022
 H      3   2   1     2.082672824017   150.16449331    29.70123095
 H      4   3   2     1.837186179142   107.80869036    23.05733808
 H      3   2   1     2.096177942970   100.96241553   191.05059222

---------------------
BASIS SET INFORMATION
---------------------
There are 3 groups of distinct atoms

 Group   1 Type C   : 7s4p1d contracted to 3s2p1d pattern {511/31/1}
 Group   2 Type O   : 7s4p1d contracted to 3s2p1d pattern {511/31/1}
 Group   3 Type H   : 4s1p contracted to 2s1p pattern {31/1}

Atom   0C    basis set group =>   1
Atom   1O    basis set group =>   2
Atom   2C    basis set group =>   1
Atom   3O    basis set group =>   2
Atom   4H    basis set group =>   3
Atom   5H    basis set group =>   3
Atom   6H    basis set group =>   3
Atom   7H    basis set group =>   3
Atom   8H    basis set group =>   3
Atom   9H    basis set group =>   3
---------------------------------
AUXILIARY/J BASIS SET INFORMATION
---------------------------------
There are 3 groups of distinct atoms

 Group   1 Type C   : 12s5p4d2f1g contracted to 6s4p3d1f1g pattern {711111/2111/211/2/1}
 Group   2 Type O   : 12s5p4d2f1g contracted to 6s4p3d1f1g pattern {711111/2111/211/2/1}
 Group   3 Type H   : 5s2p1d contracted to 3s1p1d pattern {311/2/1}

Atom   0C    basis set group =>   1
Atom   1O    basis set group =>   2
Atom   2C    basis set group =>   1
Atom   3O    basis set group =>   2
Atom   4H    basis set group =>   3
Atom   5H    basis set group =>   3
Atom   6H    basis set group =>   3
Atom   7H    basis set group =>   3
Atom   8H    basis set group =>   3
Atom   9H    basis set group =>   3


           ************************************************************
           *        Program running with 6 parallel MPI-processes     *
           *              working on a common directory               *
           ************************************************************
------------------------------------------------------------------------------
                             ORCA STARTUP CALCULATIONS
                           -- RI-GTO INTEGRALS CHOSEN --
------------------------------------------------------------------------------
------------------------------------------------------------------------------
                   ___                                                        
                  /   \      - P O W E R E D   B Y -                         
                 /     \                                                     
                 |  |  |   _    _      __       _____    __    __             
                 |  |  |  | |  | |    /  \     |  _  \  |  |  /  |          
                  \  \/   | |  | |   /    \    | | | |  |  | /  /          
                 / \  \   | |__| |  /  /\  \   | |_| |  |  |/  /          
                |  |  |   |  __  | /  /__\  \  |    /   |      \           
                |  |  |   | |  | | |   __   |  |    \   |  |\   \          
                \     /   | |  | | |  |  |  |  | |\  \  |  | \   \       
                 \___/    |_|  |_| |__|  |__|  |_| \__\ |__|  \__/        
                                                                              
                      - O R C A' S   B I G   F R I E N D -                    
                                      &                                       
                       - I N T E G R A L  F E E D E R -                       
                                                                              
 v1 FN, 2020, v2 2021, v3 2022-2024                                           
------------------------------------------------------------------------------


----------------------
SHARK INTEGRAL PACKAGE
----------------------

Number of atoms                             ...     10
Number of basis functions                   ...     86
Number of shells                            ...     42
Maximum angular momentum                    ...      2
Integral batch strategy                     ... SHARK/LIBINT Hybrid
RI-J (if used) integral strategy            ... SPLIT-RIJ (Revised 2003 algorithm where possible)
Printlevel                                  ...      1
Contraction scheme used                     ... SEGMENTED contraction
Prescreening option                         ... SCHWARTZ
   Thresh                                   ... 2.500e-11
   Tcut                                     ... 2.500e-12
   Tpresel                                  ... 2.500e-12 
Coulomb Range Separation                    ... NOT USED
Exchange Range Separation                   ... NOT USED
Multipole approximations                    ... NOT USED
Finite Nucleus Model                        ... NOT USED
CABS basis                                  ... NOT available
Auxiliary Coulomb fitting basis             ... AVAILABLE
   # of basis functions in Aux-J            ...    262
   # of shells in Aux-J                     ...     90
   Maximum angular momentum in Aux-J        ...      4
Auxiliary J/K fitting basis                 ... NOT available
Auxiliary Correlation fitting basis         ... NOT available
Auxiliary 'external' fitting basis          ... NOT available

Checking pre-screening integrals            ... done (  0.0 sec) Dimension = 42
   => SHARK Basis and OBASIS are compatible. Storing Pre-screening
Shell pair information
Shell pair cut-off parameter TPreSel        ...   2.5e-12
Total number of shell pairs                 ...       903
Shell pairs after pre-screening             ...       871
Total number of primitive shell pairs       ...      3151
Primitive shell pairs kept                  ...      2397
          la=0 lb=0:    290 shell pairs
          la=1 lb=0:    323 shell pairs
          la=1 lb=1:    102 shell pairs
          la=2 lb=0:     92 shell pairs
          la=2 lb=1:     54 shell pairs
          la=2 lb=2:     10 shell pairs

Checking whether 4 symmetric matrices of dimension 86 fit in memory
:Max Core in MB      =   4096.00
 MB in use           =      4.36
 MB left             =   4091.64
 MB needed           =      0.11
 Data fit in memory  = YES
Calculating RI/J V-Matrix + Cholesky decomp.... done (  0.0 sec)
Calculating Nuclear repulsion               ... done (  0.0 sec) ENN=    118.744110863327 Eh

Diagonalization of the overlap matrix:
Smallest eigenvalue                        ... 1.178e-02
Time for diagonalization                   ...    0.001 sec
Threshold for overlap eigenvalues          ... 1.000e-07
Number of eigenvalues below threshold      ... 0
Time for construction of square roots      ...    0.001 sec
Total time needed                          ...    0.003 sec

-------------------
DFT GRID GENERATION
-------------------

General Integration Accuracy     IntAcc      ... 4.388
Radial Grid Type                 RadialGrid  ... OptM3 with GC (2021)
Angular Grid (max. ang.)         AngularGrid ... 4 (Lebedev-302)
Angular grid pruning method      GridPruning ... 4 (adaptive)
Weight generation scheme         WeightScheme... mBecke (2022)
Basis function cutoff            BFCut       ... 1.0000e-11
Integration weight cutoff        WCut        ... 1.0000e-14
Partially contracted basis set               ... off
Rotationally invariant grid construction     ... off
Angular grids for H and He will be reduced by one unit

Total number of grid points                  ...    43956
Total number of batches                      ...      692
Average number of points per batch           ...       63
Average number of grid points per atom       ...     4396

--------------------
COSX GRID GENERATION
--------------------

GRIDX 1
-------
General Integration Accuracy     IntAcc      ... 3.816
Radial Grid Type                 RadialGrid  ... OptM3 with GC (2021)
Angular Grid (max. ang.)         AngularGrid ... 1 (Lebedev-50)
Angular grid pruning method      GridPruning ... 4 (adaptive)
Weight generation scheme         WeightScheme... mBecke (2022)
Basis function cutoff            BFCut       ... 1.0000e-11
Integration weight cutoff        WCut        ... 1.0000e-14
Partially contracted basis set               ... on
Rotationally invariant grid construction     ... off
Angular grids for H and He will be reduced by one unit

Total number of grid points                  ...     5651
Total number of batches                      ...       50
Average number of points per batch           ...      113
Average number of grid points per atom       ...      565
UseSFitting                                  ... on

GRIDX 2
-------
General Integration Accuracy     IntAcc      ... 4.020
Radial Grid Type                 RadialGrid  ... OptM3 with GC (2021)
Angular Grid (max. ang.)         AngularGrid ... 2 (Lebedev-110)
Angular grid pruning method      GridPruning ... 4 (adaptive)
Weight generation scheme         WeightScheme... mBecke (2022)
Basis function cutoff            BFCut       ... 1.0000e-11
Integration weight cutoff        WCut        ... 1.0000e-14
Partially contracted basis set               ... on
Rotationally invariant grid construction     ... off
Angular grids for H and He will be reduced by one unit

Total number of grid points                  ...    12105
Total number of batches                      ...      100
Average number of points per batch           ...      121
Average number of grid points per atom       ...     1210
UseSFitting                                  ... on

GRIDX 3
-------
General Integration Accuracy     IntAcc      ... 4.338
Radial Grid Type                 RadialGrid  ... OptM3 with GC (2021)
Angular Grid (max. ang.)         AngularGrid ... 3 (Lebedev-194)
Angular grid pruning method      GridPruning ... 4 (adaptive)
Weight generation scheme         WeightScheme... mBecke (2022)
Basis function cutoff            BFCut       ... 1.0000e-11
Integration weight cutoff        WCut        ... 1.0000e-14
Partially contracted basis set               ... on
Rotationally invariant grid construction     ... off
Angular grids for H and He will be reduced by one unit

Total number of grid points                  ...    26638
Total number of batches                      ...      213
Average number of points per batch           ...      125
Average number of grid points per atom       ...     2664
UseSFitting                                  ... on
Grids setup in   0.5 sec
Initializing property integral containers    ... done (  0.0 sec)

SHARK setup successfully completed in   0.6 seconds

Maximum memory used throughout the entire STARTUP-calculation: 13.3 MB


           ************************************************************
           *        Program running with 6 parallel MPI-processes     *
           *              working on a common directory               *
           ************************************************************
-------------------------------------------------------------------------------
                                 ORCA GUESS
                   Start orbitals & Density for SCF / CASSCF
-------------------------------------------------------------------------------

------------
SCF SETTINGS
------------
Hamiltonian:
 Density Functional     Method          .... DFT(GTOs)
 Exchange Functional    Exchange        .... B88
   X-Alpha parameter    XAlpha          ....  0.666667
   Becke's b parameter  XBeta           ....  0.004200
 Correlation Functional Correlation     .... LYP
 LDA part of GGA corr.  LDAOpt          .... VWN-5
 Gradients option       PostSCFGGA      .... off
 Hybrid DFT is turned on
   Fraction HF Exchange ScalHFX         ....  0.200000
   Scaling of DF-GGA-X  ScalDFX         ....  0.720000
   Scaling of DF-GGA-C  ScalDFC         ....  0.810000
   Scaling of DF-LDA-C  ScalLDAC        ....  1.000000
   Perturbative correction              ....  0.000000
   NL short-range parameter             ....  4.800000
 RI-approximation to the Coulomb term is turned on
   Number of AuxJ basis functions       .... 262
   RIJ-COSX (HFX calculated with COS-X)).... on


General Settings:
 Integral files         IntName         .... orca
 Hartree-Fock type      HFTyp           .... RHF
 Total Charge           Charge          ....    0
 Multiplicity           Mult            ....    1
 Number of Electrons    NEL             ....   34
 Basis Dimension        Dim             ....   86
 Nuclear Repulsion      ENuc            ....    118.7441108633 Eh

Convergence Acceleration:
 AO-DIIS                CNVDIIS         .... on
   Start iteration      DIISMaxIt       ....    12
   Startup error        DIISStart       ....  0.200000
   # of expansion vecs  DIISMaxEq       ....     5
   Bias factor          DIISBfac        ....   1.050
   Max. coefficient     DIISMaxC        ....  10.000
 MO-DIIS                CNVKDIIS        .... off
 Trust-Rad. Augm. Hess. CNVTRAH         .... auto
   Auto Start mean grad. ratio tolernc. ....  1.125000
   Auto Start start iteration           ....    50
   Auto Start num. interpolation iter.  ....    10
   Max. Number of Micro iterations      ....    24
   Max. Number of Macro iterations      .... Maxiter - #DIIS iter
   Number of Davidson start vectors     ....     2
   Converg. threshold    (grad. norm)   ....   1.000e-05
   Grad. Scal. Fac. for Micro threshold ....   0.100
   Minimum threshold for Micro iter.    ....   1.000e-02
   NR start threshold (gradient norm)   ....   1.000e-04
   Initial trust radius                 ....   0.400
   Minimum AH scaling param. (alpha)    ....   1.000
   Maximum AH scaling param. (alpha)    .... 1000.000
   Quad. conv. algorithm                .... NR
   White noise on init. David. guess    .... on
   Maximum white noise                  ....   0.010
   Pseudo random numbers                .... off
   Inactive MOs                         .... canonical
   Orbital update algorithm             .... Taylor
   Preconditioner                       .... Diag
   Full preconditioner red. dimension   ....   250
 SOSCF                 CNVSOSCF           .... on
   Start iteration     SOSCFMaxIt         ....   150
   Startup grad/error  SOSCFStart         ....  0.003300
   Hessian update      SOSCFHessUp        .... L-BFGS
   Autom. constraints  SOSCFAutoConstrain .... off
 Level Shifting         CNVShift        .... on
   Level shift para.    LevelShift      ....    0.2500
   Turn off err/grad.   ShiftErr        ....    0.0010
 Zerner damping         CNVZerner       .... off
 Static damping         CNVDamp         .... on
   Fraction old density DampFac         ....    0.7000
   Max. Damping (<1)    DampMax         ....    0.9800
   Min. Damping (>=0)   DampMin         ....    0.0000
   Turn off err/grad.   DampErr         ....    0.1000

SCF Procedure:
 Maximum # iterations   MaxIter         ....   125
 SCF integral mode      SCFMode         .... Direct
   Integral package                     .... SHARK and LIBINT hybrid scheme
 Reset frequency        DirectResetFreq ....    20
 Integral Threshold     Thresh          ....  2.500e-11 Eh
 Primitive CutOff       TCut            ....  2.500e-12 Eh

Convergence Tolerance:
 Convergence Check Mode ConvCheckMode   .... Total+1el-Energy
 Convergence forced     ConvForced      .... 0
 Energy Change          TolE            ....  1.000e-08 Eh
 1-El. energy change                    ....  1.000e-05 Eh
 Orbital Gradient       TolG            ....  1.000e-05
 Orbital Rotation angle TolX            ....  1.000e-05
 DIIS Error             TolErr          ....  5.000e-07

------------------------------
INITIAL GUESS: MODEL POTENTIAL
------------------------------
Loading Hartree-Fock densities                     ... done
Calculating cut-offs                               ... done
Initializing the effective Hamiltonian             ... done
Setting up the integral package (SHARK)            ... done
Starting the Coulomb interaction                   ... done (   0.0 sec)
Making the grid                                    ... done (   0.1 sec)
Mapping shells                                     ... done
Starting the XC term evaluation                    ... done (   0.0 sec)
  promolecular density results
     # of electrons  =     33.997280107
     EX              =    -28.395378918
     EC              =     -1.133891354
     EX+EC           =    -29.529270272
Transforming the Hamiltonian                       ... done (   0.0 sec)
Diagonalizing the Hamiltonian                      ... done (   0.0 sec)
Back transforming the eigenvectors                 ... done (   0.0 sec)
Now organizing SCF variables                       ... done
                      ------------------
                      INITIAL GUESS DONE (   0.1 sec)
                      ------------------
             **** ENERGY FILE WAS UPDATED (orca.en.tmp) ****
Finished Guess after   0.2 sec
Maximum memory used throughout the entire GUESS-calculation: 6.7 MB


           ************************************************************
           *        Program running with 6 parallel MPI-processes     *
           *              working on a common directory               *
           ************************************************************

-------------------------------------------------------------------------------------------
                                      ORCA LEAN-SCF
                              memory conserving SCF solver
-------------------------------------------------------------------------------------------

----------------------------------------D-I-I-S--------------------------------------------
Iteration    Energy (Eh)           Delta-E    RMSDP     MaxDP     DIISErr   Damp  Time(sec)
-------------------------------------------------------------------------------------------
               ***  Starting incremental Fock matrix formation  ***
    1    -229.7857832563452405     0.00e+00  1.24e-02  8.76e-02  2.45e-01  0.700   0.3
    2    -229.8582692960593192    -7.25e-02  7.73e-03  5.13e-02  1.04e-01  0.700   0.2
                               ***Turning on AO-DIIS***
    3    -229.8819256059118459    -2.37e-02  2.90e-03  1.42e-02  2.83e-02  0.700   0.2
    4    -229.8975402921198281    -1.56e-02  4.27e-03  2.22e-02  1.39e-02  0.000   0.2
    5    -229.9334228414044503    -3.59e-02  1.09e-03  5.48e-03  5.35e-03  0.000   0.2
                              *** Initializing SOSCF ***
---------------------------------------S-O-S-C-F--------------------------------------
Iteration    Energy (Eh)           Delta-E    RMSDP     MaxDP     MaxGrad    Time(sec)
--------------------------------------------------------------------------------------
    6    -229.9336021683407409    -1.79e-04  3.95e-04  2.00e-03  1.82e-03     0.2
               *** Restarting incremental Fock matrix formation ***
    7    -229.9336415346307092    -3.94e-05  2.67e-04  1.35e-03  3.08e-04     0.3
    8    -229.9336398666656294     1.67e-06  1.11e-04  1.03e-03  6.58e-04     0.3
    9    -229.9336436852686063    -3.82e-06  5.60e-05  4.47e-04  1.23e-04     0.3
   10    -229.9336435571868549     1.28e-07  2.98e-05  2.08e-04  1.16e-04     0.3
   11    -229.9336438615216878    -3.04e-07  1.16e-05  6.41e-05  1.90e-05     0.3
   12    -229.9336438610102107     5.11e-10  5.94e-06  3.56e-05  1.87e-05     0.2
                 **** Energy Check signals convergence ****

               *****************************************************
               *                     SUCCESS                       *
               *           SCF CONVERGED AFTER  12 CYCLES          *
               *****************************************************

Recomputing exchange energy using gridx3       ... done (    0.371 sec)
Old exchange energy                            :     -5.770683575 Eh
New exchange energy                            :     -5.770699310 Eh
Exchange energy change after final integration :     -0.000015734 Eh
Total energy after final integration           :   -229.933659601 Eh
             **** ENERGY FILE WAS UPDATED (orca.en.tmp) ****

----------------
TOTAL SCF ENERGY
----------------

Total Energy       :       -229.93365960071864 Eh           -6256.81297 eV

Components:
Nuclear Repulsion  :        118.74411086332688 Eh            3231.19153 eV
Electronic Energy  :       -348.67775472955736 Eh           -9488.00407 eV
One Electron Energy:       -548.48784686691022 Eh          -14925.11309 eV
Two Electron Energy:        199.81009213735285 Eh            5437.10902 eV

Virial components:
Potential Energy   :       -457.93473515989490 Eh          -12461.03765 eV
Kinetic Energy     :        228.00107555917629 Eh            6204.22468 eV
Virial Ratio       :          2.00847620581088

DFT components:
N(Alpha)           :       16.999995583695 electrons
N(Beta)            :       16.999995583695 electrons
N(Total)           :       33.999991167389 electrons
E(X)               :      -22.952458841041 Eh       
E(C)               :       -1.346418224864 Eh       
E(XC)              :      -24.298877065905 Eh       

---------------
SCF CONVERGENCE
---------------

  Last Energy change         ...   -5.1148e-10  Tolerance :   1.0000e-08
  Last MAX-Density change    ...    3.5594e-05  Tolerance :   1.0000e-07
  Last RMS-Density change    ...    5.9363e-06  Tolerance :   5.0000e-09
  Last DIIS Error            ...    1.8235e-03  Tolerance :   5.0000e-07
  Last Orbital Gradient      ...    1.8745e-05  Tolerance :   1.0000e-05
  Last Orbital Rotation      ...    1.0828e-05  Tolerance :   1.0000e-05


----------------
ORBITAL ENERGIES
----------------

  NO   OCC          E(Eh)            E(eV) 
   0   2.0000     -19.170693      -521.6611 
   1   2.0000     -19.107825      -519.9504 
   2   2.0000     -10.299552      -280.2650 
   3   2.0000     -10.217909      -278.0434 
   4   2.0000      -1.067410       -29.0457 
   5   2.0000      -0.985658       -26.8211 
   6   2.0000      -0.657535       -17.8924 
   7   2.0000      -0.635319       -17.2879 
   8   2.0000      -0.517674       -14.0866 
   9   2.0000      -0.485611       -13.2141 
  10   2.0000      -0.463901       -12.6234 
  11   2.0000      -0.424637       -11.5550 
  12   2.0000      -0.418546       -11.3892 
  13   2.0000      -0.409239       -11.1359 
  14   2.0000      -0.320235        -8.7140 
  15   2.0000      -0.283366        -7.7108 
  16   2.0000      -0.255414        -6.9502 
  17   0.0000      -0.059444        -1.6175 
  18   0.0000       0.068330         1.8594 
  19   0.0000       0.081608         2.2207 
  20   0.0000       0.119801         3.2600 
  21   0.0000       0.137973         3.7544 
  22   0.0000       0.142084         3.8663 
  23   0.0000       0.148685         4.0459 
  24   0.0000       0.219162         5.9637 
  25   0.0000       0.245676         6.6852 
  26   0.0000       0.423273        11.5178 
  27   0.0000       0.431034        11.7290 
*Only the first 10 virtual orbitals were printed.

                    ********************************
                    * MULLIKEN POPULATION ANALYSIS *
                    ********************************

-----------------------
MULLIKEN ATOMIC CHARGES
-----------------------
   0 C :    0.171910
   1 O :   -0.228584
   2 C :    0.159323
   3 O :   -0.348024
   4 H :    0.037494
   5 H :    0.044577
   6 H :   -0.016429
   7 H :    0.012786
   8 H :    0.167127
   9 H :   -0.000180
Sum of atomic charges:   -0.0000000

--------------------------------
MULLIKEN REDUCED ORBITAL CHARGES
--------------------------------
  0 C s       :     3.173851  s :     3.173851
      pz      :     0.916806  p :     2.579105
      px      :     0.955482
      py      :     0.706816
      dz2     :     0.029398  d :     0.075133
      dxz     :     0.021883
      dyz     :     0.010988
      dx2y2   :     0.008855
      dxy     :     0.004009

  1 O s       :     3.800296  s :     3.800296
      pz      :     1.475357  p :     4.409903
      px      :     1.659933
      py      :     1.274613
      dz2     :     0.005571  d :     0.018384
      dxz     :     0.005671
      dyz     :     0.004572
      dx2y2   :     0.001124
      dxy     :     0.001447

  2 C s       :     2.998303  s :     2.998303
      pz      :     1.033022  p :     2.785017
      px      :     0.977543
      py      :     0.774453
      dz2     :     0.008359  d :     0.057357
      dxz     :     0.010114
      dyz     :     0.008662
      dx2y2   :     0.012358
      dxy     :     0.017864

  3 O s       :     3.733573  s :     3.733573
      pz      :     1.541802  p :     4.601410
      px      :     1.630182
      py      :     1.429427
      dz2     :     0.002674  d :     0.013040
      dxz     :     0.002941
      dyz     :     0.001788
      dx2y2   :     0.003431
      dxy     :     0.002207

  4 H s       :     0.943185  s :     0.943185
      pz      :     0.002239  p :     0.019321
      px      :     0.014980
      py      :     0.002103

  5 H s       :     0.934838  s :     0.934838
      pz      :     0.011692  p :     0.020585
      px      :     0.006820
      py      :     0.002074

  6 H s       :     0.994888  s :     0.994888
      pz      :     0.005190  p :     0.021541
      px      :     0.008417
      py      :     0.007933

  7 H s       :     0.965820  s :     0.965820
      pz      :     0.011056  p :     0.021394
      px      :     0.007904
      py      :     0.002433

  8 H s       :     0.762996  s :     0.762996
      pz      :     0.028461  p :     0.069876
      px      :     0.027321
      py      :     0.014094

  9 H s       :     0.978563  s :     0.978563
      pz      :     0.010510  p :     0.021617
      px      :     0.007712
      py      :     0.003396



                     *******************************
                     * LOEWDIN POPULATION ANALYSIS *
                     *******************************

----------------------
LOEWDIN ATOMIC CHARGES
----------------------
   0 C :    0.154505
   1 O :   -0.113586
   2 C :    0.058270
   3 O :   -0.159598
   4 H :    0.000772
   5 H :   -0.000916
   6 H :   -0.005828
   7 H :    0.015185
   8 H :    0.050085
   9 H :    0.001110

-------------------------------
LOEWDIN REDUCED ORBITAL CHARGES
-------------------------------
  0 C s       :     2.927079  s :     2.927079
      pz      :     1.006752  p :     2.742612
      px      :     1.032053
      py      :     0.703806
      dz2     :     0.072280  d :     0.175804
      dxz     :     0.055098
      dyz     :     0.018991
      dx2y2   :     0.022500
      dxy     :     0.006935

  1 O s       :     3.556598  s :     3.556598
      pz      :     1.576601  p :     4.525942
      px      :     1.691749
      py      :     1.257592
      dz2     :     0.010501  d :     0.031045
      dxz     :     0.011384
      dyz     :     0.005225
      dx2y2   :     0.002227
      dxy     :     0.001707

  2 C s       :     2.845151  s :     2.845151
      pz      :     1.077047  p :     2.967777
      px      :     1.029957
      py      :     0.860773
      dz2     :     0.019772  d :     0.128802
      dxz     :     0.025498
      dyz     :     0.016557
      dx2y2   :     0.026412
      dxy     :     0.040563

  3 O s       :     3.447465  s :     3.447465
      pz      :     1.584774  p :     4.688232
      px      :     1.627965
      py      :     1.475493
      dz2     :     0.004827  d :     0.023901
      dxz     :     0.006417
      dyz     :     0.002423
      dx2y2   :     0.006151
      dxy     :     0.004084

  4 H s       :     0.935205  s :     0.935205
      pz      :     0.008111  p :     0.064023
      px      :     0.048544
      py      :     0.007368

  5 H s       :     0.932988  s :     0.932988
      pz      :     0.040060  p :     0.067928
      px      :     0.020348
      py      :     0.007520

  6 H s       :     0.943805  s :     0.943805
      pz      :     0.012335  p :     0.062022
      px      :     0.024107
      py      :     0.025580

  7 H s       :     0.923872  s :     0.923872
      pz      :     0.031112  p :     0.060943
      px      :     0.021642
      py      :     0.008188

  8 H s       :     0.755542  s :     0.755542
      pz      :     0.085854  p :     0.194373
      px      :     0.073502
      py      :     0.035016

  9 H s       :     0.936635  s :     0.936635
      pz      :     0.029845  p :     0.062255
      px      :     0.021715
      py      :     0.010694



                      *****************************
                      * MAYER POPULATION ANALYSIS *
                      *****************************

  NA   - Mulliken gross atomic population
  ZA   - Total nuclear charge
  QA   - Mulliken gross atomic charge
  VA   - Mayer's total valence
  BVA  - Mayer's bonded valence
  FA   - Mayer's free valence

  ATOM       NA         ZA         QA         VA         BVA        FA
  0 C      5.8281     6.0000     0.1719     3.9099     3.9099    -0.0000
  1 O      8.2286     8.0000    -0.2286     2.2327     2.2327     0.0000
  2 C      5.8407     6.0000     0.1593     3.9812     3.9812     0.0000
  3 O      8.3480     8.0000    -0.3480     2.0978     2.0978    -0.0000
  4 H      0.9625     1.0000     0.0375     0.9576     0.9576    -0.0000
  5 H      0.9554     1.0000     0.0446     0.9900     0.9900    -0.0000
  6 H      1.0164     1.0000    -0.0164     0.9710     0.9710     0.0000
  7 H      0.9872     1.0000     0.0128     0.9834     0.9834    -0.0000
  8 H      0.8329     1.0000     0.1671     1.0649     1.0649     0.0000
  9 H      1.0002     1.0000    -0.0002     0.9744     0.9744     0.0000

  Mayer bond orders larger than 0.100000
B(  0-C ,  1-O ) :   2.0580 B(  0-C ,  4-H ) :   0.9216 B(  0-C ,  5-H ) :   0.9139 
B(  2-C ,  3-O ) :   1.0526 B(  2-C ,  6-H ) :   0.9617 B(  2-C ,  7-H ) :   0.9816 
B(  2-C ,  9-H ) :   0.9714 B(  3-O ,  8-H ) :   0.9398 

-------
TIMINGS
-------

Total SCF time: 0 days 0 hours 0 min 3 sec 

Total time                  ....       3.814 sec
Sum of individual times     ....       3.532 sec  ( 92.6%)

SCF preparation             ....       0.152 sec  (  4.0%)
Fock matrix formation       ....       3.214 sec  ( 84.3%)
  Startup                   ....       0.004 sec  (  0.1% of F)
  Split-RI-J                ....       0.233 sec  (  7.2% of F)
  Chain of spheres X        ....       2.321 sec  ( 72.2% of F)
  XC integration            ....       0.779 sec  ( 24.2% of F)
    Basis function eval.    ....       0.247 sec  ( 31.7% of XC)
    Density eval.           ....       0.105 sec  ( 13.5% of XC)
    XC-Functional eval.     ....       0.069 sec  (  8.8% of XC)
    XC-Potential eval.      ....       0.122 sec  ( 15.6% of XC)
Diagonalization             ....       0.000 sec  (  0.0%)
Density matrix formation    ....       0.023 sec  (  0.6%)
Total Energy calculation    ....       0.014 sec  (  0.4%)
Population analysis         ....       0.009 sec  (  0.2%)
Orbital Transformation      ....       0.010 sec  (  0.3%)
Orbital Orthonormalization  ....       0.000 sec  (  0.0%)
DIIS solution               ....       0.062 sec  (  1.6%)
SOSCF solution              ....       0.048 sec  (  1.2%)
Finished LeanSCF after   3.8 sec

Maximum memory used throughout the entire LEANSCF-calculation: 7.7 MB


-------------------------------------------------------------------------------
                          DFT DISPERSION CORRECTION                            
                                                                               
                              DFTD3 V3.1  Rev 1                                
                          USING Becke-Johnson damping                          
-------------------------------------------------------------------------------
The B3LYP functional is recognized
Active option DFTDOPT                   ...         4   

molecular C6(AA) [au] = 704.777335 


            DFT-D V3
 parameters
 s6 scaling factor         :     1.0000 
 a1 scaling factor         :     0.3981 
 s8 scaling factor         :     1.9889 
 a2 scaling factor         :     4.4211 
 ad hoc parameters k1-k3   :    16.0000     1.3333    -4.0000 

 Edisp/kcal,au: -4.749507292098  -0.007568820841 
 E6   /kcal   :  -2.428572169 
 E8   /kcal   :  -2.320935123 
 % E8         :  48.866860929 

-------------------------   ----------------
Dispersion correction           -0.007568821
-------------------------   ----------------


-------------------------   --------------------
FINAL SINGLE POINT ENERGY      -229.941228421560
-------------------------   --------------------



           ************************************************************
           *        Program running with 6 parallel MPI-processes     *
           *              working on a common directory               *
           ************************************************************
------------------------------------------------------------------------------
                         ORCA SCF GRADIENT CALCULATION
------------------------------------------------------------------------------

Nuc. rep. gradient        (SHARK) ... done (  0.0 sec)
HCore & Overlap gradient  (SHARK) ... done (  0.0 sec)
Split-RIJ-J gradient      (SHARK) ... done (  0.1 sec)
done (  1.2 sec)
XC gradient                       ... done (  0.3 sec)
Dispersion correction             ... done (  0.0 sec)

-------------------
DISPERSION GRADIENT
-------------------

   1   C   :    0.000442262   -0.000095755    0.000036868
   2   O   :    0.000277014   -0.000090631    0.000190952
   3   C   :   -0.000334366    0.000134869   -0.000070862
   4   O   :   -0.000262530   -0.000056967   -0.000056342
   5   H   :    0.000081338   -0.000003332   -0.000001647
   6   H   :    0.000190580   -0.000064570   -0.000047181
   7   H   :   -0.000150197    0.000153400   -0.000055343
   8   H   :   -0.000081379    0.000042069   -0.000049846
   9   H   :   -0.000065071   -0.000072428    0.000045640
  10   H   :   -0.000097653    0.000053345    0.000007761

Difference to translation invariance:
           :   -0.0000000000    0.0000000000   -0.0000000000

Difference to rotation invariance:
           :    0.0000000000    0.0000000000    0.0000000000

Norm of the Dispersion gradient    ...    0.0008193121
RMS gradient                       ...    0.0001495852
MAX gradient                       ...    0.0004422625

------------------
CARTESIAN GRADIENT
------------------

   1   C   :    0.000109528    0.000019696   -0.000153930
   2   O   :   -0.000119022   -0.000066607    0.000270954
   3   C   :    0.000151584   -0.000038373   -0.000012154
   4   O   :   -0.000205351    0.000061963   -0.000102779
   5   H   :    0.000093168    0.000033953   -0.000024379
   6   H   :    0.000014039    0.000009366   -0.000008034
   7   H   :    0.000019590    0.000029691   -0.000074911
   8   H   :   -0.000062470   -0.000055184    0.000000180
   9   H   :    0.000045727   -0.000048407    0.000020756
  10   H   :   -0.000046794    0.000053902    0.000084297

Difference to translation invariance:
           :   -0.0000000001   -0.0000000000    0.0000000001

Difference to rotation invariance:
           :   -0.0000099573   -0.0000293567   -0.0000618330

Norm of the Cartesian gradient     ...    0.0005009346
RMS gradient                       ...    0.0000914577
MAX gradient                       ...    0.0002709541

-------
TIMINGS
-------

Total SCF gradient time     ....        1.671 sec

Densities                   ....       0.000 sec  (  0.0%)
One electron gradient       ....       0.015 sec  (  0.9%)
RI-J Coulomb gradient       ....       0.107 sec  (  6.4%)
COSX gradient               ....       1.231 sec  ( 73.7%)
XC gradient                 ....       0.281 sec  ( 16.8%)

Maximum memory used throughout the entire SCFGRAD-calculation: 26.5 MB


           ************************************************************
           *        Program running with 6 parallel MPI-processes     *
           *              working on a common directory               *
           ************************************************************

------------------------------------------------------------------------------
                              ORCA PROPERTY CALCULATIONS
------------------------------------------------------------------------------

GBWName                                 ... orca.gbw
Number of atoms                         ...     10
Number of basis functions               ...     86
Max core memory                         ...   4096 MB

Electric properties:
Dipole moment                           ... YES
Quadrupole moment                       ...  NO
Static polarizability (Dipole/Dipole)   ...  NO
Static polarizability (Dipole/Quad.)    ...  NO
Static polarizability (Quad./Quad.)     ...  NO
Static polarizability (Velocity)        ...  NO
Static hyperpolarizability              ...  NO

Atomic electric properties:
Dipole moment                           ...  NO
Quadrupole moment                       ...  NO
Static polarizability                   ...  NO

Choice of electric origin               ... Center of mass
Position of electric origin             ...    -0.056782    -0.489891     0.450615

General magnetic properties:
Magnetizability                         ...  NO

EPR properties:
g-Tensor (aka g-matrix)                 ...  NO
Zero-Field splitting spin-orbit         ...  NO
Zero-field splitting spin-spin          ...  NO
Hyperfine couplings                     ...  NO (   0 nuclei)
Quadrupole couplings                    ...  NO (   0 nuclei)
Contact density                         ...  NO (   0 nuclei)

NMR properties:
Chemical shifts                         ...  NO (   0 nuclei)
Spin-rotation constants                 ...  NO (   0 nuclei)
Spin-spin couplings                     ...  NO (   0 nuclei,    0 pairs)

Choice of magnetic origin               ... GIAO
Position of magnetic origin             ...     0.000000     0.000000     0.000000

Properties with geometric perturbations:
SCF Hessian                             ...  NO
IR spectrum                             ...  NO
VCD spectrum                            ...  NO
X-ray spectroscopy properties:
SCF XES/XAS/RIXS spectra                ...  NO

SCF SOC stabilization energy            ...  NO
Diagonal Born-Oppenheimer correction    ...  NO

-------------
DIPOLE MOMENT
-------------

Method             : SCF
Type of density    : Electron Density
Multiplicity       :   1
Irrep              :   0
Energy             :  -229.9336596007186415 Eh
Basis              : AO
                                X                 Y                 Z
Electronic contribution:      2.621588011      -2.235022079       1.962503571
Nuclear contribution   :     -1.849532460       2.628785755      -2.248275776
                        -----------------------------------------
Total Dipole Moment    :      0.772055551       0.393763677      -0.285772205
                        -----------------------------------------
Magnitude (a.u.)       :      0.912570742
Magnitude (Debye)      :      2.319570487



--------------------
Rotational spectrum 
--------------------
 
Rotational constants in cm-1:             0.609591             0.095885             0.095080 
Rotational constants in MHz :         18275.073615          2874.572096          2850.438158 

Dipole components along the rotational axes: 
x,y,z [a.u.] :    -0.556893    -0.312291    -0.652020 
x,y,z [Debye]:    -1.415509    -0.793780    -1.657303 

 

Dipole moment calculation done in   0.0 sec 

Maximum memory used throughout the entire PROP-calculation: 4.6 MB

--------------------------------
SUGGESTED CITATIONS FOR THIS RUN
--------------------------------

Below you find a list of papers that are relevant to this ORCA run
We neither can nor want to force you to cite these papers, but we appreciate if you do
You receive ORCA, which is the product of decades of hard work by many enthusiastic individuals, for free
The only thing we kindly ask in return is that you cite our papers,
We deeply appreciate it, if you show your appreciation for ORCA by not just citing the generic ORCA reference.

Please note that relegating all ORCA citations to the supporting information does *not* help us.
SI sections are not indexed - citations you put there will not count into any citation statistics
But we need these citations in order to attract the funding resources that allow us to do what we are doing

Therefore, if you are a happy ORCA user, please consider citing a few of the papers listed below in the main body of your paper

In addition to the list printed below, the program has created the file orca.bibtex that contains the list in bibtex format
You can import this file easily into all common literature databanks and citation aid programs


List of essential papers. We consider these as the minimum necessary citations

  1. Neese, F.
     Software update: the ORCA program system, version 6.0
     WIRES Comput. Molec. Sci. 2025 15(1), e70019
     doi.org/10.1002/wcms.7019

List of papers to cite with high priority. The work reported in these papers was absolutely
necessary for this run to complete.
Our perspective: the developers of density functionals and basis sets usually get cited in chemistry papers
Good! But without the algorithms to do something with them, the functionals or basis sets would not do anything.
Hence, in our opinion, the algorithm design and method developments papers are equally worthy of getting cited

  1. Neese, F.
     An improvement of the resolution of the identity approximation for the formation of the Coulomb matrix
     J. Comp. Chem. 2003 24(14), 1740-1747
     doi.org/10.1002/jcc.10318
  2. Neese, F.; Wennmohs, F.; Hansen, A.; Becker, U.
     Efficient, approximate and parallel Hartree-Fock and hybrid DFT calculations. A 'chain-of-spheres' algorithm for the Hartree-Fock exchange
     Chem. Phys. 2009 356(1-3), 98-109
     doi.org/10.1016/j.chemphys.2008.10.036
  3. Grimme, S.; Antony, J.; Ehrlich, S.; Krieg, H.
     A consistent and accurate ab initio parametrization of density functional dispersion correction (DFT-D) for the 94 elements H-Pu
     J. Chem. Phys. 2010 132 , 154104
     doi.org/10.1063/1.3382344
  4. Grimme, S.; Ehrlich, S.; Goerigk, L.
     Effect of the damping function in dispersion corrected density functional theory
     J. Comput. Chem. 2011 32(7), 1456-1465
     doi.org/10.1002/jcc.21759
  5. Helmich-Paris, B.; de Souza, B.; Neese, F.; Izsák, R.
     An improved chain of spheres for exchange algorithm
     J. Chem. Phys. 2021 155(10), 104109
     doi.org/10.1063/5.0058766
  6. Neese, F.
     The SHARK Integral Generation and Digestion System
     J. Comp. Chem. 2022 44(3), 381
     doi.org/10.1002/jcc.26942

List of suggested additional citations. These are papers that are important in the 'surrounding' of 
of this run, or papers that preceded the highly important papers. If you like your results we are grateful for a citation.

  1. Izsak, R.; Neese, F.
     An overlap fitted chain of spheres exchange method
     J. Chem. Phys. 2011 135 , 144105
     doi.org/10.1063/1.3646921
  2. Izsak, R.; Hansen, A.; Neese, F.
     The resolution of identity and chain of spheres approximations for the LPNO-CCSD singles Fock term
     Molec. Phys. 2012 110 , 2413-2417
     doi.org/10.1080/00268976.2012.687466
  3. Neese, F.
     The ORCA program system
     WIRES Comput. Molec. Sci. 2012 2(1), 73-78
     doi.org/10.1002/wcms.81
  4. Izsak, R.; Neese, F.; Klopper, W.
     Robust fitting techniques in the chain of spheres approximation to the Fock exchange: The role of the complementary space
     J. Chem. Phys. 2013 139 , 
     doi.org/10.1063/1.4819264
  5. Neese, F.
     Software update: the ORCA program system, version 4.0
     WIRES Comput. Molec. Sci. 2018 8(1), 1-6
     doi.org/10.1002/wcms.1327
  6. Neese, F.; Wennmohs, F.; Becker, U.; Riplinger, C.
     The ORCA quantum chemistry program package
     J. Chem. Phys. 2020 152(22), 224108
     doi.org/10.1063/5.0004608
  7. Neese, F.
     Software update: The ORCA program system—Version 5.0
     WIRES Comput. Molec. Sci. 2022 12(1), e1606
     doi.org/10.1002/wcms.1606

List of optional additional citations

  1. Neese, F.
     Approximate second-order SCF convergence for spin unrestricted wavefunctions
     Chem. Phys. Lett. 2000 325(1-3), 93-98
     doi.org/10.1016/s0009-2614(00)00662-x

Timings for individual modules:

Sum of individual times          ...        8.234 sec (=   0.137 min)
Startup calculation              ...        1.005 sec (=   0.017 min)  12.2 %
SCF iterations                   ...        4.707 sec (=   0.078 min)  57.2 %
Property calculations            ...        0.415 sec (=   0.007 min)   5.0 %
SCF Gradient evaluation          ...        2.107 sec (=   0.035 min)  25.6 %
                             ****ORCA TERMINATED NORMALLY****
TOTAL RUN TIME: 0 days 0 hours 0 minutes 8 seconds 887 msec
