
                                 *****************
                                 * O   R   C   A *
                                 *****************

                                            #,                                       
                                            ###                                      
                                            ####                                     
                                            #####                                    
                                            ######                                   
                                           ########,                                 
                                     ,,################,,,,,                         
                               ,,#################################,,                 
                          ,,##########################################,,             
                       ,#########################################, ''#####,          
                    ,#############################################,,   '####,        
                  ,##################################################,,,,####,       
                ,###########''''           ''''###############################       
              ,#####''   ,,,,##########,,,,          '''####'''          '####       
            ,##' ,,,,###########################,,,                        '##       
           ' ,,###''''                  '''############,,,                           
         ,,##''                                '''############,,,,        ,,,,,,###''
      ,#''                                            '''#######################'''  
     '                                                          ''''####''''         
             ,#######,   #######,   ,#######,      ##                                
            ,#'     '#,  ##    ##  ,#'     '#,    #''#        ,####,    ,#,          
            ##       ##  ##   ,#'  ##            #'  '#       #'       ,# #          
            ##       ##  #######   ##           ,######,      #####,      #          
            '#,     ,#'  ##    ##  '#,     ,#' ,#      #,     #,   #      #          
             '#######'   ##     ##  '#######'  #'      '#     '####' #    #          



                #########################################################
                #                        -***-                          #
                #          Department of theory and spectroscopy        #
                #                                                       #
                #                      Frank Neese                      #
                #                                                       #
                #     Directorship, Architecture, Infrastructure        #
                #                    SHARK, DRIVERS                     #
                #        Core code/Algorithms in most modules           #
                #                                                       #
                #        Max Planck Institute fuer Kohlenforschung      #
                #                Kaiser Wilhelm Platz 1                 #
                #                 D-45470 Muelheim/Ruhr                 #
                #                      Germany                          #
                #                                                       #
                #                  All rights reserved                  #
                #                        -***-                          #
                #########################################################


                         Program Version 6.1.0  -  RELEASE   -
                                (GIT: $679e74b$)
                          ($2025-06-10 18:02:51 +0200$)


 With contributions from (in alphabetic order):
[Max-Planck-Institut fuer Kohlenforschung]                               
  Daniel Aravena         : Magnetic Suceptibility                        
  Michael Atanasov       : Ab Initio Ligand Field Theory (pilot matlab implementation)
  Alexander A. Auer      : GIAO ZORA, VPT2 properties, NMR spectrum      
  Ute Becker             : All parallelization in ORCA, NUMFREQ, NUMCALC 
  Giovanni Bistoni       : ED, misc. LED, open-shell LED, HFLD           
  Dmytro Bykov           : pre 5.0 version of the SCF Hessian            
  Marcos Casanova-Páez   : Triplet and SCS-CIS(D). UHF-(DLPNO)-IP/EA/STEOM-CCSD. UHF-CVS-IP/STEOM-CCSD   
  Vijay G. Chilkuri      : MRCI spin determinant printing, contributions to CSF-ICE 
  Pauline Colinet        : FMM embedding                                 
  Dipayan Datta          : RHF DLPNO-CCSD density                        
  Achintya Kumar Dutta   : EOM-CC, STEOM-CC                              
  Nicolas Foglia         : Exact transition moments, OPA infrastructure, MCD improvements    
  Dmitry Ganyushin       : Spin-Orbit,Spin-Spin,Magnetic field MRCI      
  Miquel Garcia-Rates    : C-PCM and meta-GGA Hessian, CCSD/C-PCM, Gaussian charge scheme 
  Tiago L. C. Gouveia    : GS-ROHF, GS-ROCIS                             
  Yang Guo               : DLPNO-NEVPT2, F12-NEVPT2, CIM, IAO-localization        
  Andreas Hansen         : Spin unrestricted coupled pair/coupled cluster methods 
  Ingolf Harden          : AUTO-CI MPn and infrastructure                
  Benjamin Helmich-Paris : MC-RPA, TRAH-(SCF,CASSCF), AVAS, COSX integrals, SCF dyn. polar., MC-PDFT, srDFT 
  Lee Huntington         : MR-EOM, pCC                                   
  Robert Izsak           : Overlap fitted RIJCOSX, COSX-SCS-MP3, EOM     
  Riya Kayal             : Wick's Theorem for AUTO-CI, AUTO-CI UHF-CCSDT 
  Emily Kempfer          : AUTO-CI RHF CISDT and CCSDT, approximate NEVPT4
  Christian Kollmar      : KDIIS, OOCD, Brueckner-CCSD(T), CCSD density, CASPT2, CASPT2-K, improved NEVPT2 
  Axel Koslowski         : Symmetry handling                             
  Simone Kossmann        : meta-GGA functionals, TD-DFT gradient, OOMP2, (MP2 Hessian; deprecated post 5.0) 
  Lucas Lang             : DCDCAS, Hyperfine gauge corrections, ICE-SOC+SSC
  Marvin Lechner         : AUTO-CI (C++ implementation), FIC-MRCC        
  Spencer Leger          : CASSCF response                               
  Dagmar Lenk            : GEPOL surface, SMD, ORCA-2-JSON               
  Dimitrios Liakos       : Extrapolation schemes; Compound Job, Property file
  Dimitrios Manganas     : Further ROCIS development; embedding schemes. LFT, Crystal Embedding 
  Dimitrios Pantazis     : SARC Basis sets                               
  Anastasios Papadopoulos: AUTO-CI, single reference methods and gradients 
  Taras Petrenko         : pre 6.0 DFT Hessian and TD-DFT gradient,  ECA, NRVS 
  Petra Pikulova         : Analytic Raman intensities                    
  Peter Pinski           : DLPNO-MP2, DLPNO-MP2 Gradient                 
  Shashank Vittal Rao    : ES-AILFT, MagRelax                            
  Christoph Reimann      : Effective Core Potentials                     
  Marius Retegan         : Local ZFS, SOC                                
  Christoph Riplinger    : Optimizer, TS searches, QM/MM, DLPNO-CCSD(T), (RO)-DLPNO pert. Triples 
  Michael Roemelt        : Original ROCIS implementation, recursive CI coupling coefficients
  Masaaki Saitow         : Open-shell DLPNO-CCSD energy and density      
  Barbara Sandhoefer     : DKH picture change effects                    
  Yorick L. A. Schmerwitz: GMF and freeze-and-release deltaSCF, NEB S-IDPP initial path                    
  Kantharuban Sivalingam : CASSCF convergence/infrastructure, NEVPT2, NEVPT3, NEVPT4(SD), FIC-MRCI and CEPA variants
  Bernardo de Souza      : ESD, SOC TD-DFT                               
  Georgi L. Stoychev     : AutoAux, RI-MP2 NMR, DLPNO-MP2 response, X2C  
  Van Anh Tran           : RI-MP2 g-tensors                              
  Willem Van den Heuvel  : Paramagnetic NMR                              
  Zikuan Wang            : NOTCH, Electric field optimization            
  Frank Wennmohs         : Technical directorship and infrastructure     
  Hang Xu                : AUTO-CI-Response properties                   
                                                                         
[FACCTs GmbH]                                                            
  Markus Bursch, Nicolas Foglia, Miquel Garcia-Rates, Ingolf Harden, Hagen Neugebauer, Anastasios Papadopoulos, 
  Christoph Riplinger, Bernardo de Souza, Georgi L. Stoychev                                                    
                                                                 
  APM, various basis sets, CI-OPT, improved COSX, DLPNO-Multilevel,           
  DOCKER, DRACO, updates on ESD, Fragmentator, GOAT, IRC, LR-CPCM, L-BFGS, MBIS, meta-GGA TD-DFT gradient, ML-optimized integration grids, 
  MM, NACMEs, nearIR, NEB, NEB-TS, NL-DFT gradient (VV10), 2- and 3-layer-ONIOM, interface openCOSMO-RS, QMMM,   
  Crystal-QMMM, RESP, rigid body optimization, SF, symmetry and pop. for TD-DFT, various functionals, SOLVATOR                                   
                                                                         
[Other institutions]                                                     
  V. Asgeirsson          : NEB                                           
  Christoph Bannwarth    : sTDA-DFT, sTD-DFT, PBEh-3c, B97-3c, D3        
  Giovanni Bistoni       : ETS/NOCV, ADLD/ADEX, COVALED                  
  Martin Brehm           : Molecular dynamics                            
  Ronald Cardenas        : ETS/NOCV                                      
  Martina Colucci        : COVALED                                       
  Sebastian Ehlert       : rSCAN, r2SCAN, r2SCAN-3c, D4, dhf basis sets  
  Marvin Friede          : D4 for Fr, Ra, Ac-Lr                          
  Lars Goerigk           : TD-DFT with DH, B97 family of functionals     
  Stefan Grimme          : VdW corrections, initial TS optimization, DFT functionals, gCP, sTDA/sTD-DF 
  Waldemar Hujo          : DFT-NL                                        
  H. Jonsson             : NEB                                           
  Holger Kruse           : gCP                                           
  Marcel Mueller         : wB97X-3c, vDZP basis set                      
  Hagen Neugebauer       : wr2SCAN, Native XTB                           
  Gianluca Regni         : ADLD/ADEX                                     
  Tobias Risthaus        : pre 6.0 range-separated hybrid DFT and stability analysis
  Lukas Wittmann         : regularized MP2, r2SCAN double-hybrids, wr2SCAN        
                                                                         
We gratefully acknowledge several colleagues who have allowed us to      
interface, adapt or use parts of their codes:                            
  Ed Valeev, F. Pavosevic, A. Kumar             : LibInt (2-el integral package), F12 methods 
  Garnet Chan, S. Sharma, J. Yang, R. Olivares  : DMRG                   
  Ulf Ekstrom                                   : XCFun DFT Library      
  Mihaly Kallay                                 : mrcc  (arbitrary order and MRCC methods)
  Frank Weinhold                                : gennbo (NPA and NBO analysis)           
  Simon Mueller                                 : openCOSMO-RS                            
  Christopher J. Cramer and Donald G. Truhlar   : smd solvation model                     
  S Lehtola, MJT Oliveira, MAL Marques          : LibXC Library                           
  Liviu Ungur et al                             : ANISO software                          


 Your calculation uses the libint2 library for the computation of 2-el integrals
 For citations please refer to: http://libint.valeyev.net

 Your ORCA version has been built with support for libXC version: 7.0.0
 For citations please refer to: https://libxc.gitlab.io

 This ORCA versions uses:
   CBLAS   interface :  Fast vector & matrix operations
   LAPACKE interface :  Fast linear algebra routines
   SCALAPACK package :  Parallel linear algebra routines
   Shared memory     :  Shared parallel matrices
   BLAS/LAPACK       :  OpenBLAS 0.3.29  USE64BITINT DYNAMIC_ARCH NO_AFFINITY Zen SINGLE_THREADED
        Core in use  :  Zen
   Copyright (c) 2011-2014, The OpenBLAS Project


  ***********************************
  * Starting time: Wed Sep 10 13:34:00 2025
  * Host name:     wyk-Server
  * Process ID:    2278895
  * Working dir.:  /home/wyk/Documents/code/openQDC/MGMR/singlepointcalc/20/prod
  ***********************************

Your calculation utilizes the atom-pairwise dispersion correction
with the Becke-Johnson damping scheme (D3BJ)


Warning: RI is on but no J-basis has been assigned. Assigning Def2/J (nothing to worry about!)
================================================================================

----- Orbital basis set information -----
Your calculation utilizes the basis: def2-SVP
   F. Weigend and R. Ahlrichs, Phys. Chem. Chem. Phys. 7, 3297 (2005).

----- AuxJ basis set information -----
Your calculation utilizes the auxiliary basis: def2/J
   H-Rn: F. Weigend, Phys. Chem. Chem. Phys. 8, 1057 (2006).
   Fr-Lr: K. Eichkorn, F. Weigend, O. Treutler, R. Ahlrichs; Theor. Chem. Acc. 97, 119 (1997).

================================================================================
                                        WARNINGS
                       Please study these warnings very carefully!
================================================================================


================================================================================
                                       INPUT FILE
================================================================================
NAME = orca.inp
|  1> ! B3LYP def2-SVP d3 EnGrad 
|  2> %pal nprocs 6 end 
|  3> *xyz 0 1 
|  4> H   1.43970608052127 -1.29260858594726 -0.32371090267245
|  5> C   1.87601145990061 -0.29675438010803 -0.23943031236299
|  6> C   1.14282090150972 0.8021724874423 -0.02688475821611
|  7> H   2.96140748485997 -0.1985022340108 -0.29794829764359
|  8> H   1.60047945432065 1.78620933789724 0.11608929579095
|  9> O   -0.93484608780468 -1.28323727940806 0.48854009828061
| 10> H   -1.25764850698306 -1.00766634622347 1.35843370293689
| 11> O   -0.21284545959495 0.90869400837345 0.04377841087032
| 12> C   -0.99792262672118 -0.19007972795132 -0.36765443157649
| 13> H   -2.01947923572982 0.22185362096452 -0.45199125654143
| 14> H   -0.65395246427854 -0.54769990102858 -1.3538135488657
| 15> *
| 16> 
| 17>                          ****END OF INPUT****
================================================================================

                     *******************************
                     * Energy+Gradient Calculation *
                     *******************************

---------------------------------
CARTESIAN COORDINATES (ANGSTROEM)
---------------------------------
  H      1.439706   -1.292609   -0.323711
  C      1.876011   -0.296754   -0.239430
  C      1.142821    0.802172   -0.026885
  H      2.961407   -0.198502   -0.297948
  H      1.600479    1.786209    0.116089
  O     -0.934846   -1.283237    0.488540
  H     -1.257649   -1.007666    1.358434
  O     -0.212845    0.908694    0.043778
  C     -0.997923   -0.190080   -0.367654
  H     -2.019479    0.221854   -0.451991
  H     -0.653952   -0.547700   -1.353814

----------------------------
CARTESIAN COORDINATES (A.U.)
----------------------------
  NO LB      ZA    FRAG     MASS         X           Y           Z
   0 H     1.0000    0     1.008    2.720650   -2.442676   -0.611725
   1 C     6.0000    0    12.011    3.545148   -0.560785   -0.452458
   2 C     6.0000    0    12.011    2.159619    1.515886   -0.050805
   3 H     1.0000    0     1.008    5.596249   -0.375115   -0.563041
   4 H     1.0000    0     1.008    3.024468    3.375446    0.219377
   5 O     8.0000    0    15.999   -1.766603   -2.424967    0.923207
   6 H     1.0000    0     1.008   -2.376611   -1.904213    2.567068
   7 O     8.0000    0    15.999   -0.402220    1.717183    0.082729
   8 C     6.0000    0    12.011   -1.885800   -0.359199   -0.694766
   9 H     1.0000    0     1.008   -3.816263    0.419243   -0.854140
  10 H     1.0000    0     1.008   -1.235791   -1.035003   -2.558337

--------------------------------
INTERNAL COORDINATES (ANGSTROEM)
--------------------------------
 H      0   0   0     0.000000000000     0.00000000     0.00000000
 C      1   0   0     1.090500436160     0.00000000     0.00000000
 C      2   1   0     1.338052415911   122.89149783     0.00000000
 H      2   1   3     1.091403852756   118.42190999   177.89268851
 H      3   2   1     1.094633022585   122.00285460   176.20063639
 O      1   2   3     2.509648881823   110.49558039   345.96763029
 H      6   1   2     0.967913025259   127.40818559   303.32092307
 O      3   2   1     1.361679624771   128.17203357   355.96155411
 C      6   1   2     1.389978832582    81.17087100    49.69790901
 H      9   6   1     1.104707965665   112.47313280   175.50904777
 H      9   6   1     1.103955372946   106.34032547    55.14265822

---------------------------
INTERNAL COORDINATES (A.U.)
---------------------------
 H      0   0   0     0.000000000000     0.00000000     0.00000000
 C      1   0   0     2.060747173265     0.00000000     0.00000000
 C      2   1   0     2.528552618903   122.89149783     0.00000000
 H      2   1   3     2.062454383216   118.42190999   177.89268851
 H      3   2   1     2.068556629832   122.00285460   176.20063639
 O      1   2   3     4.742549078948   110.49558039   345.96763029
 H      6   1   2     1.829090539194   127.40818559   303.32092307
 O      3   2   1     2.573201572959   128.17203357   355.96155411
 C      6   1   2     2.626679325527    81.17087100    49.69790901
 H      9   6   1     2.087595513068   112.47313280   175.50904777
 H      9   6   1     2.086173318938   106.34032547    55.14265822

---------------------
BASIS SET INFORMATION
---------------------
There are 3 groups of distinct atoms

 Group   1 Type H   : 4s1p contracted to 2s1p pattern {31/1}
 Group   2 Type C   : 7s4p1d contracted to 3s2p1d pattern {511/31/1}
 Group   3 Type O   : 7s4p1d contracted to 3s2p1d pattern {511/31/1}

Atom   0H    basis set group =>   1
Atom   1C    basis set group =>   2
Atom   2C    basis set group =>   2
Atom   3H    basis set group =>   1
Atom   4H    basis set group =>   1
Atom   5O    basis set group =>   3
Atom   6H    basis set group =>   1
Atom   7O    basis set group =>   3
Atom   8C    basis set group =>   2
Atom   9H    basis set group =>   1
Atom  10H    basis set group =>   1
---------------------------------
AUXILIARY/J BASIS SET INFORMATION
---------------------------------
There are 3 groups of distinct atoms

 Group   1 Type H   : 5s2p1d contracted to 3s1p1d pattern {311/2/1}
 Group   2 Type C   : 12s5p4d2f1g contracted to 6s4p3d1f1g pattern {711111/2111/211/2/1}
 Group   3 Type O   : 12s5p4d2f1g contracted to 6s4p3d1f1g pattern {711111/2111/211/2/1}

Atom   0H    basis set group =>   1
Atom   1C    basis set group =>   2
Atom   2C    basis set group =>   2
Atom   3H    basis set group =>   1
Atom   4H    basis set group =>   1
Atom   5O    basis set group =>   3
Atom   6H    basis set group =>   1
Atom   7O    basis set group =>   3
Atom   8C    basis set group =>   2
Atom   9H    basis set group =>   1
Atom  10H    basis set group =>   1


           ************************************************************
           *        Program running with 6 parallel MPI-processes     *
           *              working on a common directory               *
           ************************************************************
------------------------------------------------------------------------------
                             ORCA STARTUP CALCULATIONS
                           -- RI-GTO INTEGRALS CHOSEN --
------------------------------------------------------------------------------
------------------------------------------------------------------------------
                   ___                                                        
                  /   \      - P O W E R E D   B Y -                         
                 /     \                                                     
                 |  |  |   _    _      __       _____    __    __             
                 |  |  |  | |  | |    /  \     |  _  \  |  |  /  |          
                  \  \/   | |  | |   /    \    | | | |  |  | /  /          
                 / \  \   | |__| |  /  /\  \   | |_| |  |  |/  /          
                |  |  |   |  __  | /  /__\  \  |    /   |      \           
                |  |  |   | |  | | |   __   |  |    \   |  |\   \          
                \     /   | |  | | |  |  |  |  | |\  \  |  | \   \       
                 \___/    |_|  |_| |__|  |__|  |_| \__\ |__|  \__/        
                                                                              
                      - O R C A' S   B I G   F R I E N D -                    
                                      &                                       
                       - I N T E G R A L  F E E D E R -                       
                                                                              
 v1 FN, 2020, v2 2021, v3 2022-2024                                           
------------------------------------------------------------------------------


----------------------
SHARK INTEGRAL PACKAGE
----------------------

Number of atoms                             ...     11
Number of basis functions                   ...    100
Number of shells                            ...     48
Maximum angular momentum                    ...      2
Integral batch strategy                     ... SHARK/LIBINT Hybrid
RI-J (if used) integral strategy            ... SPLIT-RIJ (Revised 2003 algorithm where possible)
Printlevel                                  ...      1
Contraction scheme used                     ... SEGMENTED contraction
Prescreening option                         ... SCHWARTZ
   Thresh                                   ... 2.500e-11
   Tcut                                     ... 2.500e-12
   Tpresel                                  ... 2.500e-12 
Coulomb Range Separation                    ... NOT USED
Exchange Range Separation                   ... NOT USED
Multipole approximations                    ... NOT USED
Finite Nucleus Model                        ... NOT USED
CABS basis                                  ... NOT available
Auxiliary Coulomb fitting basis             ... AVAILABLE
   # of basis functions in Aux-J            ...    311
   # of shells in Aux-J                     ...    105
   Maximum angular momentum in Aux-J        ...      4
Auxiliary J/K fitting basis                 ... NOT available
Auxiliary Correlation fitting basis         ... NOT available
Auxiliary 'external' fitting basis          ... NOT available

Checking pre-screening integrals            ... done (  0.0 sec) Dimension = 48
   => SHARK Basis and OBASIS are compatible. Storing Pre-screening
Shell pair information
Shell pair cut-off parameter TPreSel        ...   2.5e-12
Total number of shell pairs                 ...      1176
Shell pairs after pre-screening             ...      1161
Total number of primitive shell pairs       ...      4178
Primitive shell pairs kept                  ...      3287
          la=0 lb=0:    371 shell pairs
          la=1 lb=0:    426 shell pairs
          la=1 lb=1:    135 shell pairs
          la=2 lb=0:    134 shell pairs
          la=2 lb=1:     80 shell pairs
          la=2 lb=2:     15 shell pairs

Checking whether 4 symmetric matrices of dimension 100 fit in memory
:Max Core in MB      =   4096.00
 MB in use           =      4.78
 MB left             =   4091.22
 MB needed           =      0.15
 Data fit in memory  = YES
Calculating RI/J V-Matrix + Cholesky decomp.... done (  0.0 sec)
Calculating Nuclear repulsion               ... done (  0.0 sec) ENN=    180.643948507099 Eh

Diagonalization of the overlap matrix:
Smallest eigenvalue                        ... 3.127e-03
Time for diagonalization                   ...    0.002 sec
Threshold for overlap eigenvalues          ... 1.000e-07
Number of eigenvalues below threshold      ... 0
Time for construction of square roots      ...    0.001 sec
Total time needed                          ...    0.003 sec

-------------------
DFT GRID GENERATION
-------------------

General Integration Accuracy     IntAcc      ... 4.388
Radial Grid Type                 RadialGrid  ... OptM3 with GC (2021)
Angular Grid (max. ang.)         AngularGrid ... 4 (Lebedev-302)
Angular grid pruning method      GridPruning ... 4 (adaptive)
Weight generation scheme         WeightScheme... mBecke (2022)
Basis function cutoff            BFCut       ... 1.0000e-11
Integration weight cutoff        WCut        ... 1.0000e-14
Partially contracted basis set               ... off
Rotationally invariant grid construction     ... off
Angular grids for H and He will be reduced by one unit

Total number of grid points                  ...    49817
Total number of batches                      ...      783
Average number of points per batch           ...       63
Average number of grid points per atom       ...     4529

--------------------
COSX GRID GENERATION
--------------------

GRIDX 1
-------
General Integration Accuracy     IntAcc      ... 3.816
Radial Grid Type                 RadialGrid  ... OptM3 with GC (2021)
Angular Grid (max. ang.)         AngularGrid ... 1 (Lebedev-50)
Angular grid pruning method      GridPruning ... 4 (adaptive)
Weight generation scheme         WeightScheme... mBecke (2022)
Basis function cutoff            BFCut       ... 1.0000e-11
Integration weight cutoff        WCut        ... 1.0000e-14
Partially contracted basis set               ... on
Rotationally invariant grid construction     ... off
Angular grids for H and He will be reduced by one unit

Total number of grid points                  ...     6395
Total number of batches                      ...       57
Average number of points per batch           ...      112
Average number of grid points per atom       ...      581
UseSFitting                                  ... on

GRIDX 2
-------
General Integration Accuracy     IntAcc      ... 4.020
Radial Grid Type                 RadialGrid  ... OptM3 with GC (2021)
Angular Grid (max. ang.)         AngularGrid ... 2 (Lebedev-110)
Angular grid pruning method      GridPruning ... 4 (adaptive)
Weight generation scheme         WeightScheme... mBecke (2022)
Basis function cutoff            BFCut       ... 1.0000e-11
Integration weight cutoff        WCut        ... 1.0000e-14
Partially contracted basis set               ... on
Rotationally invariant grid construction     ... off
Angular grids for H and He will be reduced by one unit

Total number of grid points                  ...    13817
Total number of batches                      ...      112
Average number of points per batch           ...      123
Average number of grid points per atom       ...     1256
UseSFitting                                  ... on

GRIDX 3
-------
General Integration Accuracy     IntAcc      ... 4.338
Radial Grid Type                 RadialGrid  ... OptM3 with GC (2021)
Angular Grid (max. ang.)         AngularGrid ... 3 (Lebedev-194)
Angular grid pruning method      GridPruning ... 4 (adaptive)
Weight generation scheme         WeightScheme... mBecke (2022)
Basis function cutoff            BFCut       ... 1.0000e-11
Integration weight cutoff        WCut        ... 1.0000e-14
Partially contracted basis set               ... on
Rotationally invariant grid construction     ... off
Angular grids for H and He will be reduced by one unit

Total number of grid points                  ...    30400
Total number of batches                      ...      244
Average number of points per batch           ...      124
Average number of grid points per atom       ...     2764
UseSFitting                                  ... on
Grids setup in   0.6 sec
Initializing property integral containers    ... done (  0.0 sec)

SHARK setup successfully completed in   0.7 seconds

Maximum memory used throughout the entire STARTUP-calculation: 14.2 MB


           ************************************************************
           *        Program running with 6 parallel MPI-processes     *
           *              working on a common directory               *
           ************************************************************
-------------------------------------------------------------------------------
                                 ORCA GUESS
                   Start orbitals & Density for SCF / CASSCF
-------------------------------------------------------------------------------

------------
SCF SETTINGS
------------
Hamiltonian:
 Density Functional     Method          .... DFT(GTOs)
 Exchange Functional    Exchange        .... B88
   X-Alpha parameter    XAlpha          ....  0.666667
   Becke's b parameter  XBeta           ....  0.004200
 Correlation Functional Correlation     .... LYP
 LDA part of GGA corr.  LDAOpt          .... VWN-5
 Gradients option       PostSCFGGA      .... off
 Hybrid DFT is turned on
   Fraction HF Exchange ScalHFX         ....  0.200000
   Scaling of DF-GGA-X  ScalDFX         ....  0.720000
   Scaling of DF-GGA-C  ScalDFC         ....  0.810000
   Scaling of DF-LDA-C  ScalLDAC        ....  1.000000
   Perturbative correction              ....  0.000000
   NL short-range parameter             ....  4.800000
 RI-approximation to the Coulomb term is turned on
   Number of AuxJ basis functions       .... 311
   RIJ-COSX (HFX calculated with COS-X)).... on


General Settings:
 Integral files         IntName         .... orca
 Hartree-Fock type      HFTyp           .... RHF
 Total Charge           Charge          ....    0
 Multiplicity           Mult            ....    1
 Number of Electrons    NEL             ....   40
 Basis Dimension        Dim             ....  100
 Nuclear Repulsion      ENuc            ....    180.6439485071 Eh

Convergence Acceleration:
 AO-DIIS                CNVDIIS         .... on
   Start iteration      DIISMaxIt       ....    12
   Startup error        DIISStart       ....  0.200000
   # of expansion vecs  DIISMaxEq       ....     5
   Bias factor          DIISBfac        ....   1.050
   Max. coefficient     DIISMaxC        ....  10.000
 MO-DIIS                CNVKDIIS        .... off
 Trust-Rad. Augm. Hess. CNVTRAH         .... auto
   Auto Start mean grad. ratio tolernc. ....  1.125000
   Auto Start start iteration           ....    50
   Auto Start num. interpolation iter.  ....    10
   Max. Number of Micro iterations      ....    24
   Max. Number of Macro iterations      .... Maxiter - #DIIS iter
   Number of Davidson start vectors     ....     2
   Converg. threshold    (grad. norm)   ....   1.000e-05
   Grad. Scal. Fac. for Micro threshold ....   0.100
   Minimum threshold for Micro iter.    ....   1.000e-02
   NR start threshold (gradient norm)   ....   1.000e-04
   Initial trust radius                 ....   0.400
   Minimum AH scaling param. (alpha)    ....   1.000
   Maximum AH scaling param. (alpha)    .... 1000.000
   Quad. conv. algorithm                .... NR
   White noise on init. David. guess    .... on
   Maximum white noise                  ....   0.010
   Pseudo random numbers                .... off
   Inactive MOs                         .... canonical
   Orbital update algorithm             .... Taylor
   Preconditioner                       .... Diag
   Full preconditioner red. dimension   ....   250
 SOSCF                 CNVSOSCF           .... on
   Start iteration     SOSCFMaxIt         ....   150
   Startup grad/error  SOSCFStart         ....  0.003300
   Hessian update      SOSCFHessUp        .... L-BFGS
   Autom. constraints  SOSCFAutoConstrain .... off
 Level Shifting         CNVShift        .... on
   Level shift para.    LevelShift      ....    0.2500
   Turn off err/grad.   ShiftErr        ....    0.0010
 Zerner damping         CNVZerner       .... off
 Static damping         CNVDamp         .... on
   Fraction old density DampFac         ....    0.7000
   Max. Damping (<1)    DampMax         ....    0.9800
   Min. Damping (>=0)   DampMin         ....    0.0000
   Turn off err/grad.   DampErr         ....    0.1000

SCF Procedure:
 Maximum # iterations   MaxIter         ....   125
 SCF integral mode      SCFMode         .... Direct
   Integral package                     .... SHARK and LIBINT hybrid scheme
 Reset frequency        DirectResetFreq ....    20
 Integral Threshold     Thresh          ....  2.500e-11 Eh
 Primitive CutOff       TCut            ....  2.500e-12 Eh

Convergence Tolerance:
 Convergence Check Mode ConvCheckMode   .... Total+1el-Energy
 Convergence forced     ConvForced      .... 0
 Energy Change          TolE            ....  1.000e-08 Eh
 1-El. energy change                    ....  1.000e-05 Eh
 Orbital Gradient       TolG            ....  1.000e-05
 Orbital Rotation angle TolX            ....  1.000e-05
 DIIS Error             TolErr          ....  5.000e-07

------------------------------
INITIAL GUESS: MODEL POTENTIAL
------------------------------
Loading Hartree-Fock densities                     ... done
Calculating cut-offs                               ... done
Initializing the effective Hamiltonian             ... done
Setting up the integral package (SHARK)            ... done
Starting the Coulomb interaction                   ... done (   0.0 sec)
Making the grid                                    ... done (   0.1 sec)
Mapping shells                                     ... done
Starting the XC term evaluation                    ... done (   0.0 sec)
  promolecular density results
     # of electrons  =     39.996002475
     EX              =    -33.582823336
     EC              =     -1.354897370
     EX+EC           =    -34.937720706
Transforming the Hamiltonian                       ... done (   0.0 sec)
Diagonalizing the Hamiltonian                      ... done (   0.0 sec)
Back transforming the eigenvectors                 ... done (   0.0 sec)
Now organizing SCF variables                       ... done
                      ------------------
                      INITIAL GUESS DONE (   0.1 sec)
                      ------------------
             **** ENERGY FILE WAS UPDATED (orca.en.tmp) ****
Finished Guess after   0.3 sec
Maximum memory used throughout the entire GUESS-calculation: 7.2 MB


           ************************************************************
           *        Program running with 6 parallel MPI-processes     *
           *              working on a common directory               *
           ************************************************************

-------------------------------------------------------------------------------------------
                                      ORCA LEAN-SCF
                              memory conserving SCF solver
-------------------------------------------------------------------------------------------

----------------------------------------D-I-I-S--------------------------------------------
Iteration    Energy (Eh)           Delta-E    RMSDP     MaxDP     DIISErr   Damp  Time(sec)
-------------------------------------------------------------------------------------------
               ***  Starting incremental Fock matrix formation  ***
    1    -267.8424495436535153     0.00e+00  9.95e-03  7.68e-02  2.31e-01  0.700   0.4
    2    -267.9112413707777023    -6.88e-02  6.50e-03  5.11e-02  9.90e-02  0.700   0.3
                               ***Turning on AO-DIIS***
    3    -267.9383013270437459    -2.71e-02  2.49e-03  2.03e-02  3.51e-02  0.700   0.3
    4    -267.9544922362506441    -1.62e-02  4.06e-03  2.80e-02  1.73e-02  0.000   0.3
    5    -267.9900179954427131    -3.55e-02  7.85e-04  5.42e-03  5.18e-03  0.000   0.3
                              *** Initializing SOSCF ***
---------------------------------------S-O-S-C-F--------------------------------------
Iteration    Energy (Eh)           Delta-E    RMSDP     MaxDP     MaxGrad    Time(sec)
--------------------------------------------------------------------------------------
    6    -267.9901611257702143    -1.43e-04  2.57e-04  1.67e-03  2.20e-03     0.3
               *** Restarting incremental Fock matrix formation ***
    7    -267.9902159060648046    -5.48e-05  2.17e-04  1.35e-03  1.93e-04     0.4
    8    -267.9902145218874239     1.38e-06  9.61e-05  8.03e-04  5.43e-04     0.4
    9    -267.9902178651555005    -3.34e-06  4.20e-05  3.03e-04  8.47e-05     0.4
   10    -267.9902178018905943     6.33e-08  2.12e-05  1.56e-04  9.26e-05     0.4
   11    -267.9902179587152204    -1.57e-07  5.13e-06  3.88e-05  8.39e-06     0.3
   12    -267.9902179584153146     3.00e-10  2.71e-06  1.94e-05  7.63e-06     0.3
                 **** Energy Check signals convergence ****

               *****************************************************
               *                     SUCCESS                       *
               *           SCF CONVERGED AFTER  12 CYCLES          *
               *****************************************************

Recomputing exchange energy using gridx3       ... done (    0.580 sec)
Old exchange energy                            :     -6.814623524 Eh
New exchange energy                            :     -6.814627784 Eh
Exchange energy change after final integration :     -0.000004259 Eh
Total energy after final integration           :   -267.990222220 Eh
             **** ENERGY FILE WAS UPDATED (orca.en.tmp) ****

----------------
TOTAL SCF ENERGY
----------------

Total Energy       :       -267.99022221992817 Eh           -7292.38468 eV

Components:
Nuclear Repulsion  :        180.64394850709945 Eh            4915.57174 eV
Electronic Energy  :       -448.63416646771412 Eh          -12207.95631 eV
One Electron Energy:       -722.63032187187491 Eh          -19663.77074 eV
Two Electron Energy:        273.99615540416079 Eh            7455.81443 eV

Virial components:
Potential Energy   :       -533.68160524466521 Eh          -14522.21477 eV
Kinetic Energy     :        265.69138302473704 Eh            7229.83009 eV
Virial Ratio       :          2.00865229112446

DFT components:
N(Alpha)           :       20.000001797453 electrons
N(Beta)            :       20.000001797453 electrons
N(Total)           :       40.000003594907 electrons
E(X)               :      -27.097078344478 Eh       
E(C)               :       -1.601849531917 Eh       
E(XC)              :      -28.698927876395 Eh       

---------------
SCF CONVERGENCE
---------------

  Last Energy change         ...   -2.9991e-10  Tolerance :   1.0000e-08
  Last MAX-Density change    ...    1.9374e-05  Tolerance :   1.0000e-07
  Last RMS-Density change    ...    2.7106e-06  Tolerance :   5.0000e-09
  Last DIIS Error            ...    2.1951e-03  Tolerance :   5.0000e-07
  Last Orbital Gradient      ...    7.6349e-06  Tolerance :   1.0000e-05
  Last Orbital Rotation      ...    6.2275e-06  Tolerance :   1.0000e-05


----------------
ORBITAL ENERGIES
----------------

  NO   OCC          E(Eh)            E(eV) 
   0   2.0000     -19.160162      -521.3745 
   1   2.0000     -19.144148      -520.9387 
   2   2.0000     -10.287333      -279.9325 
   3   2.0000     -10.236908      -278.5604 
   4   2.0000     -10.167329      -276.6671 
   5   2.0000      -1.072594       -29.1868 
   6   2.0000      -1.006983       -27.4014 
   7   2.0000      -0.747816       -20.3491 
   8   2.0000      -0.683930       -18.6107 
   9   2.0000      -0.587724       -15.9928 
  10   2.0000      -0.532416       -14.4878 
  11   2.0000      -0.486321       -13.2335 
  12   2.0000      -0.478109       -13.0100 
  13   2.0000      -0.447058       -12.1651 
  14   2.0000      -0.391169       -10.6442 
  15   2.0000      -0.381148       -10.3716 
  16   2.0000      -0.365124        -9.9355 
  17   2.0000      -0.322160        -8.7664 
  18   2.0000      -0.296884        -8.0786 
  19   2.0000      -0.233438        -6.3522 
  20   0.0000       0.029031         0.7900 
  21   0.0000       0.059037         1.6065 
  22   0.0000       0.091439         2.4882 
  23   0.0000       0.099417         2.7053 
  24   0.0000       0.115579         3.1451 
  25   0.0000       0.137413         3.7392 
  26   0.0000       0.144344         3.9278 
  27   0.0000       0.191905         5.2220 
  28   0.0000       0.222992         6.0679 
  29   0.0000       0.267748         7.2858 
  30   0.0000       0.353431         9.6174 
*Only the first 10 virtual orbitals were printed.

                    ********************************
                    * MULLIKEN POPULATION ANALYSIS *
                    ********************************

-----------------------
MULLIKEN ATOMIC CHARGES
-----------------------
   0 H :    0.039927
   1 C :   -0.095506
   2 C :    0.120008
   3 H :    0.018742
   4 H :    0.010775
   5 O :   -0.296568
   6 H :    0.168849
   7 O :   -0.321290
   8 C :    0.337021
   9 H :    0.010173
  10 H :    0.007868
Sum of atomic charges:   -0.0000000

--------------------------------
MULLIKEN REDUCED ORBITAL CHARGES
--------------------------------
  0 H s       :     0.935505  s :     0.935505
      pz      :     0.005268  p :     0.024568
      px      :     0.006165
      py      :     0.013135

  1 C s       :     3.101381  s :     3.101381
      pz      :     1.099341  p :     2.969637
      px      :     0.926291
      py      :     0.944005
      dz2     :     0.002061  d :     0.024487
      dxz     :     0.001788
      dyz     :     0.003896
      dx2y2   :     0.008475
      dxy     :     0.008267

  2 C s       :     3.082710  s :     3.082710
      pz      :     0.993106  p :     2.730825
      px      :     0.770765
      py      :     0.966954
      dz2     :     0.005146  d :     0.066458
      dxz     :     0.014342
      dyz     :     0.004792
      dx2y2   :     0.023513
      dxy     :     0.018664

  3 H s       :     0.957224  s :     0.957224
      pz      :     0.005489  p :     0.024033
      px      :     0.014443
      py      :     0.004101

  4 H s       :     0.967905  s :     0.967905
      pz      :     0.004659  p :     0.021320
      px      :     0.003916
      py      :     0.012745

  5 O s       :     3.728960  s :     3.728960
      pz      :     1.212606  p :     4.554241
      px      :     1.818475
      py      :     1.523159
      dz2     :     0.002174  d :     0.013367
      dxz     :     0.001595
      dyz     :     0.004607
      dx2y2   :     0.002876
      dxy     :     0.002116

  6 H s       :     0.763629  s :     0.763629
      pz      :     0.031943  p :     0.067522
      px      :     0.019931
      py      :     0.015648

  7 O s       :     3.730618  s :     3.730618
      pz      :     1.741856  p :     4.574394
      px      :     1.256442
      py      :     1.576096
      dz2     :     0.002231  d :     0.016278
      dxz     :     0.002652
      dyz     :     0.002091
      dx2y2   :     0.005038
      dxy     :     0.004266

  8 C s       :     2.959489  s :     2.959489
      pz      :     0.926087  p :     2.608828
      px      :     0.944971
      py      :     0.737769
      dz2     :     0.017168  d :     0.094662
      dxz     :     0.009171
      dyz     :     0.025021
      dx2y2   :     0.018844
      dxy     :     0.024458

  9 H s       :     0.970753  s :     0.970753
      pz      :     0.003166  p :     0.019074
      px      :     0.012126
      py      :     0.003782

 10 H s       :     0.972447  s :     0.972447
      pz      :     0.011878  p :     0.019685
      px      :     0.004498
      py      :     0.003309



                     *******************************
                     * LOEWDIN POPULATION ANALYSIS *
                     *******************************

----------------------
LOEWDIN ATOMIC CHARGES
----------------------
   0 H :    0.026220
   1 C :   -0.135050
   2 C :    0.049314
   3 H :    0.029224
   4 H :    0.022152
   5 O :   -0.119872
   6 H :    0.081810
   7 O :   -0.119642
   8 C :    0.152054
   9 H :    0.005114
  10 H :    0.008677

-------------------------------
LOEWDIN REDUCED ORBITAL CHARGES
-------------------------------
  0 H s       :     0.901745  s :     0.901745
      pz      :     0.017272  p :     0.072036
      px      :     0.017208
      py      :     0.037556

  1 C s       :     2.885053  s :     2.885053
      pz      :     1.075943  p :     3.184349
      px      :     1.045843
      py      :     1.062563
      dz2     :     0.005484  d :     0.065649
      dxz     :     0.003669
      dyz     :     0.007726
      dx2y2   :     0.025304
      dxy     :     0.023465

  2 C s       :     2.865745  s :     2.865745
      pz      :     0.976368  p :     2.931213
      px      :     0.866960
      py      :     1.087884
      dz2     :     0.010994  d :     0.153728
      dxz     :     0.029741
      dyz     :     0.009698
      dx2y2   :     0.055110
      dxy     :     0.048185

  3 H s       :     0.901790  s :     0.901790
      pz      :     0.017278  p :     0.068986
      px      :     0.040650
      py      :     0.011059

  4 H s       :     0.913311  s :     0.913311
      pz      :     0.013952  p :     0.064536
      px      :     0.013544
      py      :     0.037040

  5 O s       :     3.445268  s :     3.445268
      pz      :     1.289612  p :     4.649256
      px      :     1.791803
      py      :     1.567842
      dz2     :     0.005631  d :     0.025348
      dxz     :     0.003560
      dyz     :     0.009532
      dx2y2   :     0.004133
      dxy     :     0.002492

  6 H s       :     0.741448  s :     0.741448
      pz      :     0.079033  p :     0.176742
      px      :     0.054591
      py      :     0.043118

  7 O s       :     3.446188  s :     3.446188
      pz      :     1.727632  p :     4.642529
      px      :     1.320441
      py      :     1.594456
      dz2     :     0.003846  d :     0.030925
      dxz     :     0.005040
      dyz     :     0.002949
      dx2y2   :     0.010319
      dxy     :     0.008771

  8 C s       :     2.839906  s :     2.839906
      pz      :     0.963303  p :     2.802120
      px      :     0.990682
      py      :     0.848135
      dz2     :     0.036985  d :     0.205920
      dxz     :     0.017758
      dyz     :     0.055484
      dx2y2   :     0.041491
      dxy     :     0.054202

  9 H s       :     0.933248  s :     0.933248
      pz      :     0.010427  p :     0.061638
      px      :     0.038043
      py      :     0.013168

 10 H s       :     0.928799  s :     0.928799
      pz      :     0.037239  p :     0.062524
      px      :     0.013114
      py      :     0.012171



                      *****************************
                      * MAYER POPULATION ANALYSIS *
                      *****************************

  NA   - Mulliken gross atomic population
  ZA   - Total nuclear charge
  QA   - Mulliken gross atomic charge
  VA   - Mayer's total valence
  BVA  - Mayer's bonded valence
  FA   - Mayer's free valence

  ATOM       NA         ZA         QA         VA         BVA        FA
  0 H      0.9601     1.0000     0.0399     1.0083     1.0083    -0.0000
  1 C      6.0955     6.0000    -0.0955     3.9106     3.9106    -0.0000
  2 C      5.8800     6.0000     0.1200     4.0639     4.0639     0.0000
  3 H      0.9813     1.0000     0.0187     0.9801     0.9801     0.0000
  4 H      0.9892     1.0000     0.0108     0.9880     0.9880     0.0000
  5 O      8.2966     8.0000    -0.2966     2.1203     2.1203    -0.0000
  6 H      0.8312     1.0000     0.1688     1.0190     1.0190     0.0000
  7 O      8.3213     8.0000    -0.3213     2.1967     2.1967    -0.0000
  8 C      5.6630     6.0000     0.3370     4.0427     4.0427     0.0000
  9 H      0.9898     1.0000     0.0102     0.9805     0.9805    -0.0000
 10 H      0.9921     1.0000     0.0079     0.9934     0.9934     0.0000

  Mayer bond orders larger than 0.100000
B(  0-H ,  1-C ) :   0.9504 B(  1-C ,  2-C ) :   1.9086 B(  1-C ,  3-H ) :   0.9426 
B(  2-C ,  4-H ) :   0.9728 B(  2-C ,  7-O ) :   1.0975 B(  5-O ,  6-H ) :   0.9734 
B(  5-O ,  8-C ) :   1.0883 B(  7-O ,  8-C ) :   0.9863 B(  8-C ,  9-H ) :   0.9575 
B(  8-C , 10-H ) :   0.9439 

-------
TIMINGS
-------

Total SCF time: 0 days 0 hours 0 min 5 sec 

Total time                  ....       5.070 sec
Sum of individual times     ....       4.724 sec  ( 93.2%)

SCF preparation             ....       0.159 sec  (  3.1%)
Fock matrix formation       ....       4.388 sec  ( 86.6%)
  Startup                   ....       0.004 sec  (  0.1% of F)
  Split-RI-J                ....       0.340 sec  (  7.8% of F)
  Chain of spheres X        ....       3.269 sec  ( 74.5% of F)
  XC integration            ....       0.974 sec  ( 22.2% of F)
    XC Preparation          ....       0.000 sec  (  0.0% of XC)
    Basis function eval.    ....       0.265 sec  ( 27.3% of XC)
    Density eval.           ....       0.134 sec  ( 13.7% of XC)
    XC-Functional eval.     ....       0.061 sec  (  6.3% of XC)
    XC-Potential eval.      ....       0.150 sec  ( 15.4% of XC)
Diagonalization             ....       0.000 sec  (  0.0%)
Density matrix formation    ....       0.023 sec  (  0.5%)
Total Energy calculation    ....       0.013 sec  (  0.3%)
Population analysis         ....       0.012 sec  (  0.2%)
Orbital Transformation      ....       0.013 sec  (  0.3%)
Orbital Orthonormalization  ....       0.000 sec  (  0.0%)
DIIS solution               ....       0.070 sec  (  1.4%)
SOSCF solution              ....       0.046 sec  (  0.9%)
Finished LeanSCF after   5.1 sec

Maximum memory used throughout the entire LEANSCF-calculation: 8.8 MB


-------------------------------------------------------------------------------
                          DFT DISPERSION CORRECTION                            
                                                                               
                              DFTD3 V3.1  Rev 1                                
                          USING Becke-Johnson damping                          
-------------------------------------------------------------------------------
The B3LYP functional is recognized
Active option DFTDOPT                   ...         4   

molecular C6(AA) [au] = 973.001438 


            DFT-D V3
 parameters
 s6 scaling factor         :     1.0000 
 a1 scaling factor         :     0.3981 
 s8 scaling factor         :     1.9889 
 a2 scaling factor         :     4.4211 
 ad hoc parameters k1-k3   :    16.0000     1.3333    -4.0000 

 Edisp/kcal,au: -7.388091324797  -0.011773671701 
 E6   /kcal   :  -3.608040903 
 E8   /kcal   :  -3.780050422 
 % E8         :  51.164099843 

-------------------------   ----------------
Dispersion correction           -0.011773672
-------------------------   ----------------


-------------------------   --------------------
FINAL SINGLE POINT ENERGY      -268.001995891629
-------------------------   --------------------



           ************************************************************
           *        Program running with 6 parallel MPI-processes     *
           *              working on a common directory               *
           ************************************************************
------------------------------------------------------------------------------
                         ORCA SCF GRADIENT CALCULATION
------------------------------------------------------------------------------

Nuc. rep. gradient        (SHARK) ... done (  0.0 sec)
HCore & Overlap gradient  (SHARK) ... done (  0.0 sec)
Split-RIJ-J gradient      (SHARK) ... done (  0.2 sec)
done (  2.3 sec)
XC gradient                       ... done (  0.5 sec)
Dispersion correction             ... done (  0.1 sec)

-------------------
DISPERSION GRADIENT
-------------------

   1   H   :    0.000207562   -0.000144256   -0.000035740
   2   C   :    0.000505156   -0.000011201   -0.000037981
   3   C   :    0.000289826    0.000251744   -0.000003841
   4   H   :    0.000170207   -0.000039107   -0.000012380
   5   H   :    0.000104913    0.000173533    0.000031219
   6   O   :   -0.000307606   -0.000219480    0.000113884
   7   H   :   -0.000194627   -0.000128710    0.000176111
   8   O   :   -0.000096697    0.000175212    0.000001863
   9   C   :   -0.000304895   -0.000018282   -0.000039788
  10   H   :   -0.000201084    0.000011633   -0.000043567
  11   H   :   -0.000172754   -0.000051084   -0.000149780

Difference to translation invariance:
           :   -0.0000000000    0.0000000000    0.0000000000

Difference to rotation invariance:
           :   -0.0000000000    0.0000000000   -0.0000000000

Norm of the Dispersion gradient    ...    0.0010077537
RMS gradient                       ...    0.0001754274
MAX gradient                       ...    0.0005051558

------------------
CARTESIAN GRADIENT
------------------

   1   H   :    0.000009231   -0.000006676    0.000022385
   2   C   :    0.000010925    0.000069208    0.000003059
   3   C   :    0.000055879   -0.000052274    0.000002578
   4   H   :    0.000024630    0.000004595   -0.000010662
   5   H   :   -0.000048295   -0.000035252    0.000007649
   6   O   :    0.000052078    0.000027938   -0.000078378
   7   H   :   -0.000031575    0.000028194    0.000012050
   8   O   :    0.000045724    0.000022150   -0.000001701
   9   C   :   -0.000043481   -0.000041215    0.000093246
  10   H   :    0.000028149   -0.000039879   -0.000058568
  11   H   :   -0.000103266    0.000023210    0.000008342

Difference to translation invariance:
           :   -0.0000000000   -0.0000000000   -0.0000000000

Difference to rotation invariance:
           :    0.0000064236    0.0000146191    0.0000789218

Norm of the Cartesian gradient     ...    0.0002435411
RMS gradient                       ...    0.0000423951
MAX gradient                       ...    0.0001032661

-------
TIMINGS
-------

Total SCF gradient time     ....        2.982 sec

Densities                   ....       0.000 sec  (  0.0%)
One electron gradient       ....       0.022 sec  (  0.7%)
RI-J Coulomb gradient       ....       0.161 sec  (  5.4%)
COSX gradient               ....       2.262 sec  ( 75.9%)
XC gradient                 ....       0.484 sec  ( 16.2%)

Maximum memory used throughout the entire SCFGRAD-calculation: 27.1 MB


           ************************************************************
           *        Program running with 6 parallel MPI-processes     *
           *              working on a common directory               *
           ************************************************************

------------------------------------------------------------------------------
                              ORCA PROPERTY CALCULATIONS
------------------------------------------------------------------------------

GBWName                                 ... orca.gbw
Number of atoms                         ...     11
Number of basis functions               ...    100
Max core memory                         ...   4096 MB

Electric properties:
Dipole moment                           ... YES
Quadrupole moment                       ...  NO
Static polarizability (Dipole/Dipole)   ...  NO
Static polarizability (Dipole/Quad.)    ...  NO
Static polarizability (Quad./Quad.)     ...  NO
Static polarizability (Velocity)        ...  NO
Static hyperpolarizability              ...  NO

Atomic electric properties:
Dipole moment                           ...  NO
Quadrupole moment                       ...  NO
Static polarizability                   ...  NO

Choice of electric origin               ... Center of mass
Position of electric origin             ...     0.204034    -0.082945    -0.001495

General magnetic properties:
Magnetizability                         ...  NO

EPR properties:
g-Tensor (aka g-matrix)                 ...  NO
Zero-Field splitting spin-orbit         ...  NO
Zero-field splitting spin-spin          ...  NO
Hyperfine couplings                     ...  NO (   0 nuclei)
Quadrupole couplings                    ...  NO (   0 nuclei)
Contact density                         ...  NO (   0 nuclei)

NMR properties:
Chemical shifts                         ...  NO (   0 nuclei)
Spin-rotation constants                 ...  NO (   0 nuclei)
Spin-spin couplings                     ...  NO (   0 nuclei,    0 pairs)

Choice of magnetic origin               ... GIAO
Position of magnetic origin             ...     0.000000     0.000000     0.000000

Properties with geometric perturbations:
SCF Hessian                             ...  NO
IR spectrum                             ...  NO
VCD spectrum                            ...  NO
X-ray spectroscopy properties:
SCF XES/XAS/RIXS spectra                ...  NO

SCF SOC stabilization energy            ...  NO
Diagonal Born-Oppenheimer correction    ...  NO

-------------
DIPOLE MOMENT
-------------

Method             : SCF
Type of density    : Electron Density
Multiplicity       :   1
Irrep              :   0
Energy             :  -267.9902222199281709 Eh
Basis              : AO
                                X                 Y                 Z
Electronic contribution:     -1.633623018       0.877746064       1.024660017
Nuclear contribution   :      1.314569917      -0.731383326      -0.881677270
                        -----------------------------------------
Total Dipole Moment    :     -0.319053101       0.146362738       0.142982746
                        -----------------------------------------
Magnitude (a.u.)       :      0.379026382
Magnitude (Debye)      :      0.963408498



--------------------
Rotational spectrum 
--------------------
 
Rotational constants in cm-1:             0.315210             0.136284             0.105275 
Rotational constants in MHz :          9449.760235          4085.684438          3156.066249 

Dipole components along the rotational axes: 
x,y,z [a.u.] :    -0.251098    -0.247418     0.139268 
x,y,z [Debye]:    -0.638239    -0.628886     0.353990 

 

Dipole moment calculation done in   0.0 sec 

Maximum memory used throughout the entire PROP-calculation: 5.2 MB

--------------------------------
SUGGESTED CITATIONS FOR THIS RUN
--------------------------------

Below you find a list of papers that are relevant to this ORCA run
We neither can nor want to force you to cite these papers, but we appreciate if you do
You receive ORCA, which is the product of decades of hard work by many enthusiastic individuals, for free
The only thing we kindly ask in return is that you cite our papers,
We deeply appreciate it, if you show your appreciation for ORCA by not just citing the generic ORCA reference.

Please note that relegating all ORCA citations to the supporting information does *not* help us.
SI sections are not indexed - citations you put there will not count into any citation statistics
But we need these citations in order to attract the funding resources that allow us to do what we are doing

Therefore, if you are a happy ORCA user, please consider citing a few of the papers listed below in the main body of your paper

In addition to the list printed below, the program has created the file orca.bibtex that contains the list in bibtex format
You can import this file easily into all common literature databanks and citation aid programs


List of essential papers. We consider these as the minimum necessary citations

  1. Neese, F.
     Software update: the ORCA program system, version 6.0
     WIRES Comput. Molec. Sci. 2025 15(1), e70019
     doi.org/10.1002/wcms.7019

List of papers to cite with high priority. The work reported in these papers was absolutely
necessary for this run to complete.
Our perspective: the developers of density functionals and basis sets usually get cited in chemistry papers
Good! But without the algorithms to do something with them, the functionals or basis sets would not do anything.
Hence, in our opinion, the algorithm design and method developments papers are equally worthy of getting cited

  1. Neese, F.
     An improvement of the resolution of the identity approximation for the formation of the Coulomb matrix
     J. Comp. Chem. 2003 24(14), 1740-1747
     doi.org/10.1002/jcc.10318
  2. Neese, F.; Wennmohs, F.; Hansen, A.; Becker, U.
     Efficient, approximate and parallel Hartree-Fock and hybrid DFT calculations. A 'chain-of-spheres' algorithm for the Hartree-Fock exchange
     Chem. Phys. 2009 356(1-3), 98-109
     doi.org/10.1016/j.chemphys.2008.10.036
  3. Grimme, S.; Antony, J.; Ehrlich, S.; Krieg, H.
     A consistent and accurate ab initio parametrization of density functional dispersion correction (DFT-D) for the 94 elements H-Pu
     J. Chem. Phys. 2010 132 , 154104
     doi.org/10.1063/1.3382344
  4. Grimme, S.; Ehrlich, S.; Goerigk, L.
     Effect of the damping function in dispersion corrected density functional theory
     J. Comput. Chem. 2011 32(7), 1456-1465
     doi.org/10.1002/jcc.21759
  5. Helmich-Paris, B.; de Souza, B.; Neese, F.; Izsák, R.
     An improved chain of spheres for exchange algorithm
     J. Chem. Phys. 2021 155(10), 104109
     doi.org/10.1063/5.0058766
  6. Neese, F.
     The SHARK Integral Generation and Digestion System
     J. Comp. Chem. 2022 44(3), 381
     doi.org/10.1002/jcc.26942

List of suggested additional citations. These are papers that are important in the 'surrounding' of 
of this run, or papers that preceded the highly important papers. If you like your results we are grateful for a citation.

  1. Izsak, R.; Neese, F.
     An overlap fitted chain of spheres exchange method
     J. Chem. Phys. 2011 135 , 144105
     doi.org/10.1063/1.3646921
  2. Izsak, R.; Hansen, A.; Neese, F.
     The resolution of identity and chain of spheres approximations for the LPNO-CCSD singles Fock term
     Molec. Phys. 2012 110 , 2413-2417
     doi.org/10.1080/00268976.2012.687466
  3. Neese, F.
     The ORCA program system
     WIRES Comput. Molec. Sci. 2012 2(1), 73-78
     doi.org/10.1002/wcms.81
  4. Izsak, R.; Neese, F.; Klopper, W.
     Robust fitting techniques in the chain of spheres approximation to the Fock exchange: The role of the complementary space
     J. Chem. Phys. 2013 139 , 
     doi.org/10.1063/1.4819264
  5. Neese, F.
     Software update: the ORCA program system, version 4.0
     WIRES Comput. Molec. Sci. 2018 8(1), 1-6
     doi.org/10.1002/wcms.1327
  6. Neese, F.; Wennmohs, F.; Becker, U.; Riplinger, C.
     The ORCA quantum chemistry program package
     J. Chem. Phys. 2020 152(22), 224108
     doi.org/10.1063/5.0004608
  7. Neese, F.
     Software update: The ORCA program system—Version 5.0
     WIRES Comput. Molec. Sci. 2022 12(1), e1606
     doi.org/10.1002/wcms.1606

List of optional additional citations

  1. Neese, F.
     Approximate second-order SCF convergence for spin unrestricted wavefunctions
     Chem. Phys. Lett. 2000 325(1-3), 93-98
     doi.org/10.1016/s0009-2614(00)00662-x

Timings for individual modules:

Sum of individual times          ...       11.081 sec (=   0.185 min)
Startup calculation              ...        1.190 sec (=   0.020 min)  10.7 %
SCF iterations                   ...        6.017 sec (=   0.100 min)  54.3 %
Property calculations            ...        0.443 sec (=   0.007 min)   4.0 %
SCF Gradient evaluation          ...        3.431 sec (=   0.057 min)  31.0 %
                             ****ORCA TERMINATED NORMALLY****
TOTAL RUN TIME: 0 days 0 hours 0 minutes 11 seconds 622 msec
