
                                 *****************
                                 * O   R   C   A *
                                 *****************

                                            #,                                       
                                            ###                                      
                                            ####                                     
                                            #####                                    
                                            ######                                   
                                           ########,                                 
                                     ,,################,,,,,                         
                               ,,#################################,,                 
                          ,,##########################################,,             
                       ,#########################################, ''#####,          
                    ,#############################################,,   '####,        
                  ,##################################################,,,,####,       
                ,###########''''           ''''###############################       
              ,#####''   ,,,,##########,,,,          '''####'''          '####       
            ,##' ,,,,###########################,,,                        '##       
           ' ,,###''''                  '''############,,,                           
         ,,##''                                '''############,,,,        ,,,,,,###''
      ,#''                                            '''#######################'''  
     '                                                          ''''####''''         
             ,#######,   #######,   ,#######,      ##                                
            ,#'     '#,  ##    ##  ,#'     '#,    #''#        ,####,    ,#,          
            ##       ##  ##   ,#'  ##            #'  '#       #'       ,# #          
            ##       ##  #######   ##           ,######,      #####,      #          
            '#,     ,#'  ##    ##  '#,     ,#' ,#      #,     #,   #      #          
             '#######'   ##     ##  '#######'  #'      '#     '####' #    #          



                #########################################################
                #                        -***-                          #
                #          Department of theory and spectroscopy        #
                #                                                       #
                #                      Frank Neese                      #
                #                                                       #
                #     Directorship, Architecture, Infrastructure        #
                #                    SHARK, DRIVERS                     #
                #        Core code/Algorithms in most modules           #
                #                                                       #
                #        Max Planck Institute fuer Kohlenforschung      #
                #                Kaiser Wilhelm Platz 1                 #
                #                 D-45470 Muelheim/Ruhr                 #
                #                      Germany                          #
                #                                                       #
                #                  All rights reserved                  #
                #                        -***-                          #
                #########################################################


                         Program Version 6.1.0  -  RELEASE   -
                                (GIT: $679e74b$)
                          ($2025-06-10 18:02:51 +0200$)


 With contributions from (in alphabetic order):
[Max-Planck-Institut fuer Kohlenforschung]                               
  Daniel Aravena         : Magnetic Suceptibility                        
  Michael Atanasov       : Ab Initio Ligand Field Theory (pilot matlab implementation)
  Alexander A. Auer      : GIAO ZORA, VPT2 properties, NMR spectrum      
  Ute Becker             : All parallelization in ORCA, NUMFREQ, NUMCALC 
  Giovanni Bistoni       : ED, misc. LED, open-shell LED, HFLD           
  Dmytro Bykov           : pre 5.0 version of the SCF Hessian            
  Marcos Casanova-Páez   : Triplet and SCS-CIS(D). UHF-(DLPNO)-IP/EA/STEOM-CCSD. UHF-CVS-IP/STEOM-CCSD   
  Vijay G. Chilkuri      : MRCI spin determinant printing, contributions to CSF-ICE 
  Pauline Colinet        : FMM embedding                                 
  Dipayan Datta          : RHF DLPNO-CCSD density                        
  Achintya Kumar Dutta   : EOM-CC, STEOM-CC                              
  Nicolas Foglia         : Exact transition moments, OPA infrastructure, MCD improvements    
  Dmitry Ganyushin       : Spin-Orbit,Spin-Spin,Magnetic field MRCI      
  Miquel Garcia-Rates    : C-PCM and meta-GGA Hessian, CCSD/C-PCM, Gaussian charge scheme 
  Tiago L. C. Gouveia    : GS-ROHF, GS-ROCIS                             
  Yang Guo               : DLPNO-NEVPT2, F12-NEVPT2, CIM, IAO-localization        
  Andreas Hansen         : Spin unrestricted coupled pair/coupled cluster methods 
  Ingolf Harden          : AUTO-CI MPn and infrastructure                
  Benjamin Helmich-Paris : MC-RPA, TRAH-(SCF,CASSCF), AVAS, COSX integrals, SCF dyn. polar., MC-PDFT, srDFT 
  Lee Huntington         : MR-EOM, pCC                                   
  Robert Izsak           : Overlap fitted RIJCOSX, COSX-SCS-MP3, EOM     
  Riya Kayal             : Wick's Theorem for AUTO-CI, AUTO-CI UHF-CCSDT 
  Emily Kempfer          : AUTO-CI RHF CISDT and CCSDT, approximate NEVPT4
  Christian Kollmar      : KDIIS, OOCD, Brueckner-CCSD(T), CCSD density, CASPT2, CASPT2-K, improved NEVPT2 
  Axel Koslowski         : Symmetry handling                             
  Simone Kossmann        : meta-GGA functionals, TD-DFT gradient, OOMP2, (MP2 Hessian; deprecated post 5.0) 
  Lucas Lang             : DCDCAS, Hyperfine gauge corrections, ICE-SOC+SSC
  Marvin Lechner         : AUTO-CI (C++ implementation), FIC-MRCC        
  Spencer Leger          : CASSCF response                               
  Dagmar Lenk            : GEPOL surface, SMD, ORCA-2-JSON               
  Dimitrios Liakos       : Extrapolation schemes; Compound Job, Property file
  Dimitrios Manganas     : Further ROCIS development; embedding schemes. LFT, Crystal Embedding 
  Dimitrios Pantazis     : SARC Basis sets                               
  Anastasios Papadopoulos: AUTO-CI, single reference methods and gradients 
  Taras Petrenko         : pre 6.0 DFT Hessian and TD-DFT gradient,  ECA, NRVS 
  Petra Pikulova         : Analytic Raman intensities                    
  Peter Pinski           : DLPNO-MP2, DLPNO-MP2 Gradient                 
  Shashank Vittal Rao    : ES-AILFT, MagRelax                            
  Christoph Reimann      : Effective Core Potentials                     
  Marius Retegan         : Local ZFS, SOC                                
  Christoph Riplinger    : Optimizer, TS searches, QM/MM, DLPNO-CCSD(T), (RO)-DLPNO pert. Triples 
  Michael Roemelt        : Original ROCIS implementation, recursive CI coupling coefficients
  Masaaki Saitow         : Open-shell DLPNO-CCSD energy and density      
  Barbara Sandhoefer     : DKH picture change effects                    
  Yorick L. A. Schmerwitz: GMF and freeze-and-release deltaSCF, NEB S-IDPP initial path                    
  Kantharuban Sivalingam : CASSCF convergence/infrastructure, NEVPT2, NEVPT3, NEVPT4(SD), FIC-MRCI and CEPA variants
  Bernardo de Souza      : ESD, SOC TD-DFT                               
  Georgi L. Stoychev     : AutoAux, RI-MP2 NMR, DLPNO-MP2 response, X2C  
  Van Anh Tran           : RI-MP2 g-tensors                              
  Willem Van den Heuvel  : Paramagnetic NMR                              
  Zikuan Wang            : NOTCH, Electric field optimization            
  Frank Wennmohs         : Technical directorship and infrastructure     
  Hang Xu                : AUTO-CI-Response properties                   
                                                                         
[FACCTs GmbH]                                                            
  Markus Bursch, Nicolas Foglia, Miquel Garcia-Rates, Ingolf Harden, Hagen Neugebauer, Anastasios Papadopoulos, 
  Christoph Riplinger, Bernardo de Souza, Georgi L. Stoychev                                                    
                                                                 
  APM, various basis sets, CI-OPT, improved COSX, DLPNO-Multilevel,           
  DOCKER, DRACO, updates on ESD, Fragmentator, GOAT, IRC, LR-CPCM, L-BFGS, MBIS, meta-GGA TD-DFT gradient, ML-optimized integration grids, 
  MM, NACMEs, nearIR, NEB, NEB-TS, NL-DFT gradient (VV10), 2- and 3-layer-ONIOM, interface openCOSMO-RS, QMMM,   
  Crystal-QMMM, RESP, rigid body optimization, SF, symmetry and pop. for TD-DFT, various functionals, SOLVATOR                                   
                                                                         
[Other institutions]                                                     
  V. Asgeirsson          : NEB                                           
  Christoph Bannwarth    : sTDA-DFT, sTD-DFT, PBEh-3c, B97-3c, D3        
  Giovanni Bistoni       : ETS/NOCV, ADLD/ADEX, COVALED                  
  Martin Brehm           : Molecular dynamics                            
  Ronald Cardenas        : ETS/NOCV                                      
  Martina Colucci        : COVALED                                       
  Sebastian Ehlert       : rSCAN, r2SCAN, r2SCAN-3c, D4, dhf basis sets  
  Marvin Friede          : D4 for Fr, Ra, Ac-Lr                          
  Lars Goerigk           : TD-DFT with DH, B97 family of functionals     
  Stefan Grimme          : VdW corrections, initial TS optimization, DFT functionals, gCP, sTDA/sTD-DF 
  Waldemar Hujo          : DFT-NL                                        
  H. Jonsson             : NEB                                           
  Holger Kruse           : gCP                                           
  Marcel Mueller         : wB97X-3c, vDZP basis set                      
  Hagen Neugebauer       : wr2SCAN, Native XTB                           
  Gianluca Regni         : ADLD/ADEX                                     
  Tobias Risthaus        : pre 6.0 range-separated hybrid DFT and stability analysis
  Lukas Wittmann         : regularized MP2, r2SCAN double-hybrids, wr2SCAN        
                                                                         
We gratefully acknowledge several colleagues who have allowed us to      
interface, adapt or use parts of their codes:                            
  Ed Valeev, F. Pavosevic, A. Kumar             : LibInt (2-el integral package), F12 methods 
  Garnet Chan, S. Sharma, J. Yang, R. Olivares  : DMRG                   
  Ulf Ekstrom                                   : XCFun DFT Library      
  Mihaly Kallay                                 : mrcc  (arbitrary order and MRCC methods)
  Frank Weinhold                                : gennbo (NPA and NBO analysis)           
  Simon Mueller                                 : openCOSMO-RS                            
  Christopher J. Cramer and Donald G. Truhlar   : smd solvation model                     
  S Lehtola, MJT Oliveira, MAL Marques          : LibXC Library                           
  Liviu Ungur et al                             : ANISO software                          


 Your calculation uses the libint2 library for the computation of 2-el integrals
 For citations please refer to: http://libint.valeyev.net

 Your ORCA version has been built with support for libXC version: 7.0.0
 For citations please refer to: https://libxc.gitlab.io

 This ORCA versions uses:
   CBLAS   interface :  Fast vector & matrix operations
   LAPACKE interface :  Fast linear algebra routines
   SCALAPACK package :  Parallel linear algebra routines
   Shared memory     :  Shared parallel matrices
   BLAS/LAPACK       :  OpenBLAS 0.3.29  USE64BITINT DYNAMIC_ARCH NO_AFFINITY Zen SINGLE_THREADED
        Core in use  :  Zen
   Copyright (c) 2011-2014, The OpenBLAS Project


  ***********************************
  * Starting time: Wed Sep 10 13:39:34 2025
  * Host name:     wyk-Server
  * Process ID:    2315367
  * Working dir.:  /home/wyk/Documents/code/openQDC/MGMR/singlepointcalc/119/react
  ***********************************

Your calculation utilizes the atom-pairwise dispersion correction
with the Becke-Johnson damping scheme (D3BJ)


Warning: RI is on but no J-basis has been assigned. Assigning Def2/J (nothing to worry about!)
================================================================================

----- Orbital basis set information -----
Your calculation utilizes the basis: def2-SVP
   F. Weigend and R. Ahlrichs, Phys. Chem. Chem. Phys. 7, 3297 (2005).

----- AuxJ basis set information -----
Your calculation utilizes the auxiliary basis: def2/J
   H-Rn: F. Weigend, Phys. Chem. Chem. Phys. 8, 1057 (2006).
   Fr-Lr: K. Eichkorn, F. Weigend, O. Treutler, R. Ahlrichs; Theor. Chem. Acc. 97, 119 (1997).

================================================================================
                                        WARNINGS
                       Please study these warnings very carefully!
================================================================================


================================================================================
                                       INPUT FILE
================================================================================
NAME = orca.inp
|  1> ! B3LYP def2-SVP d3 EnGrad 
|  2> %pal nprocs 6 end 
|  3> *xyz 0 1 
|  4> N   1.27504990023343 -0.49916387252576 0.59455478102242
|  5> B   1.58803379177007 0.21552864719899 -0.84884875793917
|  6> B   -1.91376448594128 0.14825054246751 -0.53451414849323
|  7> N   -1.77856172409976 0.23101150169273 0.86395076833628
|  8> H   0.31431793264166 -0.26197797690864 0.88045734969612
|  9> H   1.92335550301289 -0.19096971627105 1.32163404721626
| 10> H   1.3403394303246 -1.51722566462582 0.52643582942675
| 11> H   1.5602590096563 1.41954306569179 -0.62855116417129
| 12> H   2.68645422311646 -0.19344472852224 -1.20201291465242
| 13> H   0.68173574452909 -0.15351392148615 -1.58761390050511
| 14> H   -1.8253904522321 1.15152247442261 -1.19002374863022
| 15> H   -2.13883450333686 -0.93099592143678 -1.0239223210946
| 16> H   -2.00845025534414 -0.54019887473566 1.48251247157806
| 17> H   -1.70454411433034 1.12163444503847 1.34594170821016
| 18> *
| 19> 
| 20>                          ****END OF INPUT****
================================================================================

                     *******************************
                     * Energy+Gradient Calculation *
                     *******************************

---------------------------------
CARTESIAN COORDINATES (ANGSTROEM)
---------------------------------
  N      1.275050   -0.499164    0.594555
  B      1.588034    0.215529   -0.848849
  B     -1.913764    0.148251   -0.534514
  N     -1.778562    0.231012    0.863951
  H      0.314318   -0.261978    0.880457
  H      1.923356   -0.190970    1.321634
  H      1.340339   -1.517226    0.526436
  H      1.560259    1.419543   -0.628551
  H      2.686454   -0.193445   -1.202013
  H      0.681736   -0.153514   -1.587614
  H     -1.825390    1.151522   -1.190024
  H     -2.138835   -0.930996   -1.023922
  H     -2.008450   -0.540199    1.482512
  H     -1.704544    1.121634    1.345942

----------------------------
CARTESIAN COORDINATES (A.U.)
----------------------------
  NO LB      ZA    FRAG     MASS         X           Y           Z
   0 N     7.0000    0    14.007    2.409495   -0.943283    1.123546
   1 B     5.0000    0    10.810    3.000949    0.407290   -1.604092
   2 B     5.0000    0    10.810   -3.616491    0.280153   -1.010085
   3 N     7.0000    0    14.007   -3.360995    0.436548    1.632630
   4 H     1.0000    0     1.008    0.593975   -0.495067    1.663823
   5 H     1.0000    0     1.008    3.634615   -0.360880    2.497526
   6 H     1.0000    0     1.008    2.532874   -2.867141    0.994820
   7 H     1.0000    0     1.008    2.948462    2.682548   -1.187790
   8 H     1.0000    0     1.008    5.076663   -0.365558   -2.271475
   9 H     1.0000    0     1.008    1.288294   -0.290099   -3.000155
  10 H     1.0000    0     1.008   -3.449488    2.176062   -2.248819
  11 H     1.0000    0     1.008   -4.041811   -1.759327   -1.934933
  12 H     1.0000    0     1.008   -3.795421   -1.020828    2.801543
  13 H     1.0000    0     1.008   -3.221122    2.119582    2.543461

--------------------------------
INTERNAL COORDINATES (ANGSTROEM)
--------------------------------
 N      0   0   0     0.000000000000     0.00000000     0.00000000
 B      1   0   0     1.640779720255     0.00000000     0.00000000
 B      1   2   0     3.444195009260    78.83403971     0.00000000
 N      3   1   2     1.407420792366    66.19533752   213.09233240
 H      1   2   3     1.030050164510   108.77116943   340.97604272
 H      1   2   3     1.021727973520   111.93711315   220.52821927
 H      1   2   3     1.022424924794   111.28030097    99.70896509
 H      2   1   3     1.224317437710   105.41095321    84.21012606
 H      2   1   3     1.224137078776   106.22648382   205.08995858
 H      2   1   3     1.226108683521   104.94817402   324.88414906
 H      3   1   2     1.201689383807   105.52556712   328.47072233
 H      3   1   2     1.206213000257    97.90777256    95.61246056
 H      4   3   1     1.015003823749   122.62261235   263.69045934
 H      4   3   1     1.015383228092   122.02227545   101.58597025

---------------------------
INTERNAL COORDINATES (A.U.)
---------------------------
 N      0   0   0     0.000000000000     0.00000000     0.00000000
 B      1   0   0     3.100624317373     0.00000000     0.00000000
 B      1   2   0     6.508585319320    78.83403971     0.00000000
 N      3   1   2     2.659639852758    66.19533752   213.09233240
 H      1   2   3     1.946512715124   108.77116943   340.97604272
 H      1   2   3     1.930786053320   111.93711315   220.52821927
 H      1   2   3     1.932103100356   111.28030097    99.70896509
 H      2   1   3     2.313624658255   105.41095321    84.21012606
 H      2   1   3     2.313283829266   106.22648382   205.08995858
 H      2   1   3     2.317009622277   104.94817402   324.88414906
 H      3   1   2     2.270863833436   105.52556712   328.47072233
 H      3   1   2     2.279412229662    97.90777256    95.61246056
 H      4   3   1     1.918079251769   122.62261235   263.69045934
 H      4   3   1     1.918796222071   122.02227545   101.58597025

---------------------
BASIS SET INFORMATION
---------------------
There are 3 groups of distinct atoms

 Group   1 Type N   : 7s4p1d contracted to 3s2p1d pattern {511/31/1}
 Group   2 Type B   : 7s4p1d contracted to 3s2p1d pattern {511/31/1}
 Group   3 Type H   : 4s1p contracted to 2s1p pattern {31/1}

Atom   0N    basis set group =>   1
Atom   1B    basis set group =>   2
Atom   2B    basis set group =>   2
Atom   3N    basis set group =>   1
Atom   4H    basis set group =>   3
Atom   5H    basis set group =>   3
Atom   6H    basis set group =>   3
Atom   7H    basis set group =>   3
Atom   8H    basis set group =>   3
Atom   9H    basis set group =>   3
Atom  10H    basis set group =>   3
Atom  11H    basis set group =>   3
Atom  12H    basis set group =>   3
Atom  13H    basis set group =>   3
---------------------------------
AUXILIARY/J BASIS SET INFORMATION
---------------------------------
There are 3 groups of distinct atoms

 Group   1 Type N   : 12s5p4d2f1g contracted to 6s4p3d1f1g pattern {711111/2111/211/2/1}
 Group   2 Type B   : 12s5p4d2f1g contracted to 6s4p3d1f1g pattern {711111/2111/211/2/1}
 Group   3 Type H   : 5s2p1d contracted to 3s1p1d pattern {311/2/1}

Atom   0N    basis set group =>   1
Atom   1B    basis set group =>   2
Atom   2B    basis set group =>   2
Atom   3N    basis set group =>   1
Atom   4H    basis set group =>   3
Atom   5H    basis set group =>   3
Atom   6H    basis set group =>   3
Atom   7H    basis set group =>   3
Atom   8H    basis set group =>   3
Atom   9H    basis set group =>   3
Atom  10H    basis set group =>   3
Atom  11H    basis set group =>   3
Atom  12H    basis set group =>   3
Atom  13H    basis set group =>   3


           ************************************************************
           *        Program running with 6 parallel MPI-processes     *
           *              working on a common directory               *
           ************************************************************
------------------------------------------------------------------------------
                             ORCA STARTUP CALCULATIONS
                           -- RI-GTO INTEGRALS CHOSEN --
------------------------------------------------------------------------------
------------------------------------------------------------------------------
                   ___                                                        
                  /   \      - P O W E R E D   B Y -                         
                 /     \                                                     
                 |  |  |   _    _      __       _____    __    __             
                 |  |  |  | |  | |    /  \     |  _  \  |  |  /  |          
                  \  \/   | |  | |   /    \    | | | |  |  | /  /          
                 / \  \   | |__| |  /  /\  \   | |_| |  |  |/  /          
                |  |  |   |  __  | /  /__\  \  |    /   |      \           
                |  |  |   | |  | | |   __   |  |    \   |  |\   \          
                \     /   | |  | | |  |  |  |  | |\  \  |  | \   \       
                 \___/    |_|  |_| |__|  |__|  |_| \__\ |__|  \__/        
                                                                              
                      - O R C A' S   B I G   F R I E N D -                    
                                      &                                       
                       - I N T E G R A L  F E E D E R -                       
                                                                              
 v1 FN, 2020, v2 2021, v3 2022-2024                                           
------------------------------------------------------------------------------


----------------------
SHARK INTEGRAL PACKAGE
----------------------

Number of atoms                             ...     14
Number of basis functions                   ...    106
Number of shells                            ...     54
Maximum angular momentum                    ...      2
Integral batch strategy                     ... SHARK/LIBINT Hybrid
RI-J (if used) integral strategy            ... SPLIT-RIJ (Revised 2003 algorithm where possible)
Printlevel                                  ...      1
Contraction scheme used                     ... SEGMENTED contraction
Prescreening option                         ... SCHWARTZ
   Thresh                                   ... 2.500e-11
   Tcut                                     ... 2.500e-12
   Tpresel                                  ... 2.500e-12 
Coulomb Range Separation                    ... NOT USED
Exchange Range Separation                   ... NOT USED
Multipole approximations                    ... NOT USED
Finite Nucleus Model                        ... NOT USED
CABS basis                                  ... NOT available
Auxiliary Coulomb fitting basis             ... AVAILABLE
   # of basis functions in Aux-J            ...    306
   # of shells in Aux-J                     ...    110
   Maximum angular momentum in Aux-J        ...      4
Auxiliary J/K fitting basis                 ... NOT available
Auxiliary Correlation fitting basis         ... NOT available
Auxiliary 'external' fitting basis          ... NOT available

Checking pre-screening integrals            ... done (  0.0 sec) Dimension = 54
   => SHARK Basis and OBASIS are compatible. Storing Pre-screening
Shell pair information
Shell pair cut-off parameter TPreSel        ...   2.5e-12
Total number of shell pairs                 ...      1485
Shell pairs after pre-screening             ...      1447
Total number of primitive shell pairs       ...      4933
Primitive shell pairs kept                  ...      3803
          la=0 lb=0:    522 shell pairs
          la=1 lb=0:    554 shell pairs
          la=1 lb=1:    164 shell pairs
          la=2 lb=0:    126 shell pairs
          la=2 lb=1:     71 shell pairs
          la=2 lb=2:     10 shell pairs

Checking whether 4 symmetric matrices of dimension 106 fit in memory
:Max Core in MB      =   4096.00
 MB in use           =      5.10
 MB left             =   4090.90
 MB needed           =      0.17
 Data fit in memory  = YES
Calculating RI/J V-Matrix + Cholesky decomp.... done (  0.0 sec)
Calculating Nuclear repulsion               ... done (  0.0 sec) ENN=    115.863853081470 Eh

Diagonalization of the overlap matrix:
Smallest eigenvalue                        ... 5.127e-03
Time for diagonalization                   ...    0.002 sec
Threshold for overlap eigenvalues          ... 1.000e-07
Number of eigenvalues below threshold      ... 0
Time for construction of square roots      ...    0.001 sec
Total time needed                          ...    0.004 sec

-------------------
DFT GRID GENERATION
-------------------

General Integration Accuracy     IntAcc      ... 4.388
Radial Grid Type                 RadialGrid  ... OptM3 with GC (2021)
Angular Grid (max. ang.)         AngularGrid ... 4 (Lebedev-302)
Angular grid pruning method      GridPruning ... 4 (adaptive)
Weight generation scheme         WeightScheme... mBecke (2022)
Basis function cutoff            BFCut       ... 1.0000e-11
Integration weight cutoff        WCut        ... 1.0000e-14
Partially contracted basis set               ... off
Rotationally invariant grid construction     ... off
Angular grids for H and He will be reduced by one unit

Total number of grid points                  ...    56545
Total number of batches                      ...      890
Average number of points per batch           ...       63
Average number of grid points per atom       ...     4039

--------------------
COSX GRID GENERATION
--------------------

GRIDX 1
-------
General Integration Accuracy     IntAcc      ... 3.816
Radial Grid Type                 RadialGrid  ... OptM3 with GC (2021)
Angular Grid (max. ang.)         AngularGrid ... 1 (Lebedev-50)
Angular grid pruning method      GridPruning ... 4 (adaptive)
Weight generation scheme         WeightScheme... mBecke (2022)
Basis function cutoff            BFCut       ... 1.0000e-11
Integration weight cutoff        WCut        ... 1.0000e-14
Partially contracted basis set               ... on
Rotationally invariant grid construction     ... off
Angular grids for H and He will be reduced by one unit

Total number of grid points                  ...     7325
Total number of batches                      ...       66
Average number of points per batch           ...      110
Average number of grid points per atom       ...      523
UseSFitting                                  ... on

GRIDX 2
-------
General Integration Accuracy     IntAcc      ... 4.020
Radial Grid Type                 RadialGrid  ... OptM3 with GC (2021)
Angular Grid (max. ang.)         AngularGrid ... 2 (Lebedev-110)
Angular grid pruning method      GridPruning ... 4 (adaptive)
Weight generation scheme         WeightScheme... mBecke (2022)
Basis function cutoff            BFCut       ... 1.0000e-11
Integration weight cutoff        WCut        ... 1.0000e-14
Partially contracted basis set               ... on
Rotationally invariant grid construction     ... off
Angular grids for H and He will be reduced by one unit

Total number of grid points                  ...    15008
Total number of batches                      ...      121
Average number of points per batch           ...      124
Average number of grid points per atom       ...     1072
UseSFitting                                  ... on

GRIDX 3
-------
General Integration Accuracy     IntAcc      ... 4.338
Radial Grid Type                 RadialGrid  ... OptM3 with GC (2021)
Angular Grid (max. ang.)         AngularGrid ... 3 (Lebedev-194)
Angular grid pruning method      GridPruning ... 4 (adaptive)
Weight generation scheme         WeightScheme... mBecke (2022)
Basis function cutoff            BFCut       ... 1.0000e-11
Integration weight cutoff        WCut        ... 1.0000e-14
Partially contracted basis set               ... on
Rotationally invariant grid construction     ... off
Angular grids for H and He will be reduced by one unit

Total number of grid points                  ...    32668
Total number of batches                      ...      262
Average number of points per batch           ...      124
Average number of grid points per atom       ...     2333
UseSFitting                                  ... on
Grids setup in   0.7 sec
Initializing property integral containers    ... done (  0.0 sec)

SHARK setup successfully completed in   0.9 seconds

Maximum memory used throughout the entire STARTUP-calculation: 15.7 MB


           ************************************************************
           *        Program running with 6 parallel MPI-processes     *
           *              working on a common directory               *
           ************************************************************
-------------------------------------------------------------------------------
                                 ORCA GUESS
                   Start orbitals & Density for SCF / CASSCF
-------------------------------------------------------------------------------

------------
SCF SETTINGS
------------
Hamiltonian:
 Density Functional     Method          .... DFT(GTOs)
 Exchange Functional    Exchange        .... B88
   X-Alpha parameter    XAlpha          ....  0.666667
   Becke's b parameter  XBeta           ....  0.004200
 Correlation Functional Correlation     .... LYP
 LDA part of GGA corr.  LDAOpt          .... VWN-5
 Gradients option       PostSCFGGA      .... off
 Hybrid DFT is turned on
   Fraction HF Exchange ScalHFX         ....  0.200000
   Scaling of DF-GGA-X  ScalDFX         ....  0.720000
   Scaling of DF-GGA-C  ScalDFC         ....  0.810000
   Scaling of DF-LDA-C  ScalLDAC        ....  1.000000
   Perturbative correction              ....  0.000000
   NL short-range parameter             ....  4.800000
 RI-approximation to the Coulomb term is turned on
   Number of AuxJ basis functions       .... 306
   RIJ-COSX (HFX calculated with COS-X)).... on


General Settings:
 Integral files         IntName         .... orca
 Hartree-Fock type      HFTyp           .... RHF
 Total Charge           Charge          ....    0
 Multiplicity           Mult            ....    1
 Number of Electrons    NEL             ....   34
 Basis Dimension        Dim             ....  106
 Nuclear Repulsion      ENuc            ....    115.8638530815 Eh

Convergence Acceleration:
 AO-DIIS                CNVDIIS         .... on
   Start iteration      DIISMaxIt       ....    12
   Startup error        DIISStart       ....  0.200000
   # of expansion vecs  DIISMaxEq       ....     5
   Bias factor          DIISBfac        ....   1.050
   Max. coefficient     DIISMaxC        ....  10.000
 MO-DIIS                CNVKDIIS        .... off
 Trust-Rad. Augm. Hess. CNVTRAH         .... auto
   Auto Start mean grad. ratio tolernc. ....  1.125000
   Auto Start start iteration           ....    50
   Auto Start num. interpolation iter.  ....    10
   Max. Number of Micro iterations      ....    24
   Max. Number of Macro iterations      .... Maxiter - #DIIS iter
   Number of Davidson start vectors     ....     2
   Converg. threshold    (grad. norm)   ....   1.000e-05
   Grad. Scal. Fac. for Micro threshold ....   0.100
   Minimum threshold for Micro iter.    ....   1.000e-02
   NR start threshold (gradient norm)   ....   1.000e-04
   Initial trust radius                 ....   0.400
   Minimum AH scaling param. (alpha)    ....   1.000
   Maximum AH scaling param. (alpha)    .... 1000.000
   Quad. conv. algorithm                .... NR
   White noise on init. David. guess    .... on
   Maximum white noise                  ....   0.010
   Pseudo random numbers                .... off
   Inactive MOs                         .... canonical
   Orbital update algorithm             .... Taylor
   Preconditioner                       .... Diag
   Full preconditioner red. dimension   ....   250
 SOSCF                 CNVSOSCF           .... on
   Start iteration     SOSCFMaxIt         ....   150
   Startup grad/error  SOSCFStart         ....  0.003300
   Hessian update      SOSCFHessUp        .... L-BFGS
   Autom. constraints  SOSCFAutoConstrain .... off
 Level Shifting         CNVShift        .... on
   Level shift para.    LevelShift      ....    0.2500
   Turn off err/grad.   ShiftErr        ....    0.0010
 Zerner damping         CNVZerner       .... off
 Static damping         CNVDamp         .... on
   Fraction old density DampFac         ....    0.7000
   Max. Damping (<1)    DampMax         ....    0.9800
   Min. Damping (>=0)   DampMin         ....    0.0000
   Turn off err/grad.   DampErr         ....    0.1000

SCF Procedure:
 Maximum # iterations   MaxIter         ....   125
 SCF integral mode      SCFMode         .... Direct
   Integral package                     .... SHARK and LIBINT hybrid scheme
 Reset frequency        DirectResetFreq ....    20
 Integral Threshold     Thresh          ....  2.500e-11 Eh
 Primitive CutOff       TCut            ....  2.500e-12 Eh

Convergence Tolerance:
 Convergence Check Mode ConvCheckMode   .... Total+1el-Energy
 Convergence forced     ConvForced      .... 0
 Energy Change          TolE            ....  1.000e-08 Eh
 1-El. energy change                    ....  1.000e-05 Eh
 Orbital Gradient       TolG            ....  1.000e-05
 Orbital Rotation angle TolX            ....  1.000e-05
 DIIS Error             TolErr          ....  5.000e-07

------------------------------
INITIAL GUESS: MODEL POTENTIAL
------------------------------
Loading Hartree-Fock densities                     ... done
Calculating cut-offs                               ... done
Initializing the effective Hamiltonian             ... done
Setting up the integral package (SHARK)            ... done
Starting the Coulomb interaction                   ... done (   0.0 sec)
Making the grid                                    ... done (   0.1 sec)
Mapping shells                                     ... done
Starting the XC term evaluation                    ... done (   0.0 sec)
  promolecular density results
     # of electrons  =     33.994559648
     EX              =    -23.709889962
     EC              =     -1.038885378
     EX+EC           =    -24.748775340
Transforming the Hamiltonian                       ... done (   0.0 sec)
Diagonalizing the Hamiltonian                      ... done (   0.0 sec)
Back transforming the eigenvectors                 ... done (   0.0 sec)
Now organizing SCF variables                       ... done
                      ------------------
                      INITIAL GUESS DONE (   0.1 sec)
                      ------------------
             **** ENERGY FILE WAS UPDATED (orca.en.tmp) ****
Finished Guess after   0.3 sec
Maximum memory used throughout the entire GUESS-calculation: 7.5 MB


           ************************************************************
           *        Program running with 6 parallel MPI-processes     *
           *              working on a common directory               *
           ************************************************************

-------------------------------------------------------------------------------------------
                                      ORCA LEAN-SCF
                              memory conserving SCF solver
-------------------------------------------------------------------------------------------

----------------------------------------D-I-I-S--------------------------------------------
Iteration    Energy (Eh)           Delta-E    RMSDP     MaxDP     DIISErr   Damp  Time(sec)
-------------------------------------------------------------------------------------------
               ***  Starting incremental Fock matrix formation  ***
    1    -164.7853816974525216     0.00e+00  1.14e-02  9.14e-02  2.66e-01  0.700   0.5
    2    -164.8913559638272091    -1.06e-01  8.28e-03  6.17e-02  1.23e-01  0.700   0.3
                               ***Turning on AO-DIIS***
    3    -164.9360665919833764    -4.47e-02  3.57e-03  2.71e-02  3.84e-02  0.700   0.3
    4    -164.9624442324256393    -2.64e-02  5.99e-03  3.60e-02  2.11e-02  0.000   0.3
    5    -165.0190679225676718    -5.66e-02  1.14e-03  7.84e-03  7.75e-03  0.000   0.3
                              *** Initializing SOSCF ***
---------------------------------------S-O-S-C-F--------------------------------------
Iteration    Energy (Eh)           Delta-E    RMSDP     MaxDP     MaxGrad    Time(sec)
--------------------------------------------------------------------------------------
    6    -165.0194720178910188    -4.04e-04  3.34e-04  2.04e-03  1.80e-03     0.3
               *** Restarting incremental Fock matrix formation ***
    7    -165.0194873940442335    -1.54e-05  2.12e-04  1.07e-03  2.95e-04     0.5
    8    -165.0194887912676336    -1.40e-06  6.23e-05  6.25e-04  2.32e-04     0.4
    9    -165.0194900613432765    -1.27e-06  3.09e-05  2.84e-04  5.83e-05     0.4
   10    -165.0194900519003340     9.44e-09  1.56e-05  1.38e-04  6.15e-05     0.4
                 **** Energy Check signals convergence ****

               *****************************************************
               *                     SUCCESS                       *
               *           SCF CONVERGED AFTER  10 CYCLES          *
               *****************************************************

Recomputing exchange energy using gridx3       ... done (    0.681 sec)
Old exchange energy                            :     -4.896150895 Eh
New exchange energy                            :     -4.896089040 Eh
Exchange energy change after final integration :      0.000061855 Eh
Total energy after final integration           :   -165.019428291 Eh
             **** ENERGY FILE WAS UPDATED (orca.en.tmp) ****

----------------
TOTAL SCF ENERGY
----------------

Total Energy       :       -165.01942829145347 Eh           -4490.40693 eV

Components:
Nuclear Repulsion  :        115.86385308146971 Eh            3152.81573 eV
Electronic Energy  :       -280.88334322746914 Eh           -7643.22434 eV
One Electron Energy:       -449.96746822934955 Eh          -12244.23730 eV
Two Electron Energy:        169.08412500188038 Eh            4601.01295 eV

Virial components:
Potential Energy   :       -328.05313692553432 Eh           -8926.77968 eV
Kinetic Energy     :        163.03370863408082 Eh            4436.37275 eV
Virial Ratio       :          2.01217981038406

DFT components:
N(Alpha)           :       17.000010911161 electrons
N(Beta)            :       17.000010911161 electrons
N(Total)           :       34.000021822322 electrons
E(X)               :      -19.382640769981 Eh       
E(C)               :       -1.247184380308 Eh       
E(XC)              :      -20.629825150289 Eh       

---------------
SCF CONVERGENCE
---------------

  Last Energy change         ...   -9.4429e-09  Tolerance :   1.0000e-08
  Last MAX-Density change    ...    1.3798e-04  Tolerance :   1.0000e-07
  Last RMS-Density change    ...    1.5631e-05  Tolerance :   5.0000e-09
  Last DIIS Error            ...    1.8004e-03  Tolerance :   5.0000e-07
  Last Orbital Gradient      ...    6.1465e-05  Tolerance :   1.0000e-05
  Last Orbital Rotation      ...    4.2810e-05  Tolerance :   1.0000e-05


----------------
ORBITAL ENERGIES
----------------

  NO   OCC          E(Eh)            E(eV) 
   0   2.0000     -14.392499      -391.6398 
   1   2.0000     -14.347317      -390.4104 
   2   2.0000      -6.754758      -183.8063 
   3   2.0000      -6.681236      -181.8057 
   4   2.0000      -0.923872       -25.1398 
   5   2.0000      -0.872267       -23.7356 
   6   2.0000      -0.539488       -14.6802 
   7   2.0000      -0.535851       -14.5812 
   8   2.0000      -0.529420       -14.4062 
   9   2.0000      -0.524834       -14.2814 
  10   2.0000      -0.496393       -13.5076 
  11   2.0000      -0.392342       -10.6762 
  12   2.0000      -0.343867        -9.3571 
  13   2.0000      -0.322157        -8.7663 
  14   2.0000      -0.316105        -8.6017 
  15   2.0000      -0.262097        -7.1320 
  16   2.0000      -0.261688        -7.1209 
  17   0.0000       0.003784         0.1030 
  18   0.0000       0.016548         0.4503 
  19   0.0000       0.049961         1.3595 
  20   0.0000       0.086399         2.3510 
  21   0.0000       0.097513         2.6535 
  22   0.0000       0.147840         4.0229 
  23   0.0000       0.163795         4.4571 
  24   0.0000       0.175145         4.7659 
  25   0.0000       0.184058         5.0085 
  26   0.0000       0.192596         5.2408 
  27   0.0000       0.202420         5.5081 
*Only the first 10 virtual orbitals were printed.

                    ********************************
                    * MULLIKEN POPULATION ANALYSIS *
                    ********************************

-----------------------
MULLIKEN ATOMIC CHARGES
-----------------------
   0 N :    0.028882
   1 B :   -0.174322
   2 B :   -0.019001
   3 N :   -0.107321
   4 H :    0.084287
   5 H :    0.139687
   6 H :    0.139483
   7 H :   -0.104618
   8 H :   -0.093377
   9 H :   -0.068141
  10 H :   -0.029546
  11 H :   -0.043942
  12 H :    0.120369
  13 H :    0.127559
Sum of atomic charges:    0.0000000

--------------------------------
MULLIKEN REDUCED ORBITAL CHARGES
--------------------------------
  0 N s       :     3.302316  s :     3.302316
      pz      :     1.319152  p :     3.653126
      px      :     1.166072
      py      :     1.167901
      dz2     :     0.002936  d :     0.015677
      dxz     :     0.005367
      dyz     :     0.000846
      dx2y2   :     0.006030
      dxy     :     0.000498

  1 B s       :     2.896228  s :     2.896228
      pz      :     0.564924  p :     2.220173
      px      :     0.846789
      py      :     0.808460
      dz2     :     0.015474  d :     0.057920
      dxz     :     0.010174
      dyz     :     0.014938
      dx2y2   :     0.011202
      dxy     :     0.006132

  2 B s       :     2.951008  s :     2.951008
      pz      :     0.738648  p :     1.999992
      px      :     0.313071
      py      :     0.948272
      dz2     :     0.027208  d :     0.068002
      dxz     :     0.015828
      dyz     :     0.020435
      dx2y2   :     0.003983
      dxy     :     0.000548

  3 N s       :     3.328214  s :     3.328214
      pz      :     1.138434  p :     3.767326
      px      :     1.582674
      py      :     1.046218
      dz2     :     0.001752  d :     0.011781
      dxz     :     0.000650
      dyz     :     0.007554
      dx2y2   :     0.001524
      dxy     :     0.000302

  4 H s       :     0.867555  s :     0.867555
      pz      :     0.010548  p :     0.048157
      px      :     0.027088
      py      :     0.010521

  5 H s       :     0.814683  s :     0.814683
      pz      :     0.017173  p :     0.045629
      px      :     0.016878
      py      :     0.011579

  6 H s       :     0.814928  s :     0.814928
      pz      :     0.011091  p :     0.045589
      px      :     0.009554
      py      :     0.024943

  7 H s       :     1.093564  s :     1.093564
      pz      :     0.000795  p :     0.011054
      px      :     0.002001
      py      :     0.008258

  8 H s       :     1.082369  s :     1.082369
      pz      :     0.001846  p :     0.011008
      px      :     0.007010
      py      :     0.002152

  9 H s       :     1.057349  s :     1.057349
      pz      :     0.003923  p :     0.010792
      px      :     0.004820
      py      :     0.002050

 10 H s       :     1.017002  s :     1.017002
      pz      :     0.003967  p :     0.012544
      px      :     0.000783
      py      :     0.007793

 11 H s       :     1.031819  s :     1.031819
      pz      :     0.002588  p :     0.012123
      px      :     0.001007
      py      :     0.008529

 12 H s       :     0.833163  s :     0.833163
      pz      :     0.015139  p :     0.046469
      px      :     0.013161
      py      :     0.018168

 13 H s       :     0.826232  s :     0.826232
      pz      :     0.013030  p :     0.046210
      px      :     0.012065
      py      :     0.021114



                     *******************************
                     * LOEWDIN POPULATION ANALYSIS *
                     *******************************

----------------------
LOEWDIN ATOMIC CHARGES
----------------------
   0 N :    0.219782
   1 B :   -0.365729
   2 B :   -0.086164
   3 N :    0.032879
   4 H :    0.078138
   5 H :    0.101283
   6 H :    0.102823
   7 H :   -0.060155
   8 H :   -0.059644
   9 H :   -0.046754
  10 H :   -0.034277
  11 H :   -0.042614
  12 H :    0.077613
  13 H :    0.082820

-------------------------------
LOEWDIN REDUCED ORBITAL CHARGES
-------------------------------
  0 N s       :     3.020646  s :     3.020646
      pz      :     1.320313  p :     3.719795
      px      :     1.196210
      py      :     1.203272
      dz2     :     0.007303  d :     0.039777
      dxz     :     0.012125
      dyz     :     0.002755
      dx2y2   :     0.015429
      dxy     :     0.002164

  1 B s       :     2.744189  s :     2.744189
      pz      :     0.650419  p :     2.467537
      px      :     0.935104
      py      :     0.882014
      dz2     :     0.039058  d :     0.154003
      dxz     :     0.030456
      dyz     :     0.035466
      dx2y2   :     0.034651
      dxy     :     0.014373

  2 B s       :     2.784949  s :     2.784949
      pz      :     0.817814  p :     2.128739
      px      :     0.353768
      py      :     0.957158
      dz2     :     0.063330  d :     0.172476
      dxz     :     0.040162
      dyz     :     0.053894
      dx2y2   :     0.013178
      dxy     :     0.001911

  3 N s       :     3.042361  s :     3.042361
      pz      :     1.252738  p :     3.892266
      px      :     1.495711
      py      :     1.143817
      dz2     :     0.005239  d :     0.032495
      dxz     :     0.001632
      dyz     :     0.021139
      dx2y2   :     0.003755
      dxy     :     0.000730

  4 H s       :     0.795055  s :     0.795055
      pz      :     0.028017  p :     0.126807
      px      :     0.076209
      py      :     0.022581

  5 H s       :     0.786572  s :     0.786572
      pz      :     0.048642  p :     0.112144
      px      :     0.039182
      py      :     0.024320

  6 H s       :     0.785341  s :     0.785341
      pz      :     0.025950  p :     0.111836
      px      :     0.019389
      py      :     0.066496

  7 H s       :     1.031356  s :     1.031356
      pz      :     0.004086  p :     0.028799
      px      :     0.006402
      py      :     0.018311

  8 H s       :     1.030460  s :     1.030460
      pz      :     0.005902  p :     0.029184
      px      :     0.016400
      py      :     0.006882

  9 H s       :     1.017404  s :     1.017404
      pz      :     0.010041  p :     0.029350
      px      :     0.012559
      py      :     0.006750

 10 H s       :     1.001873  s :     1.001873
      pz      :     0.011180  p :     0.032404
      px      :     0.002299
      py      :     0.018925

 11 H s       :     1.011377  s :     1.011377
      pz      :     0.008624  p :     0.031236
      px      :     0.002695
      py      :     0.019918

 12 H s       :     0.802721  s :     0.802721
      pz      :     0.035774  p :     0.119667
      px      :     0.038493
      py      :     0.045400

 13 H s       :     0.797963  s :     0.797963
      pz      :     0.028683  p :     0.119217
      px      :     0.035331
      py      :     0.055204



                      *****************************
                      * MAYER POPULATION ANALYSIS *
                      *****************************

  NA   - Mulliken gross atomic population
  ZA   - Total nuclear charge
  QA   - Mulliken gross atomic charge
  VA   - Mayer's total valence
  BVA  - Mayer's bonded valence
  FA   - Mayer's free valence

  ATOM       NA         ZA         QA         VA         BVA        FA
  0 N      6.9711     7.0000     0.0289     3.6214     3.6214     0.0000
  1 B      5.1743     5.0000    -0.1743     3.6880     3.6880     0.0000
  2 B      5.0190     5.0000    -0.0190     3.5198     3.5198     0.0000
  3 N      7.1073     7.0000    -0.1073     3.4872     3.4872     0.0000
  4 H      0.9157     1.0000     0.0843     1.0965     1.0965    -0.0000
  5 H      0.8603     1.0000     0.1397     0.9830     0.9830     0.0000
  6 H      0.8605     1.0000     0.1395     0.9833     0.9833     0.0000
  7 H      1.1046     1.0000    -0.1046     0.9680     0.9680     0.0000
  8 H      1.0934     1.0000    -0.0934     0.9556     0.9556     0.0000
  9 H      1.0681     1.0000    -0.0681     0.9721     0.9721    -0.0000
 10 H      1.0295     1.0000    -0.0295     0.9737     0.9737     0.0000
 11 H      1.0439     1.0000    -0.0439     0.9677     0.9677     0.0000
 12 H      0.8796     1.0000     0.1204     0.9908     0.9908     0.0000
 13 H      0.8724     1.0000     0.1276     0.9897     0.9897     0.0000

  Mayer bond orders larger than 0.100000
B(  0-N ,  1-B ) :   0.7745 B(  0-N ,  4-H ) :   0.9260 B(  0-N ,  5-H ) :   0.9655 
B(  0-N ,  6-H ) :   0.9695 B(  1-B ,  7-H ) :   0.9730 B(  1-B ,  8-H ) :   0.9663 
B(  1-B ,  9-H ) :   0.9391 B(  2-B ,  3-N ) :   1.4391 B(  2-B , 10-H ) :   0.9702 
B(  2-B , 11-H ) :   0.9680 B(  3-N ,  4-H ) :   0.1399 B(  3-N , 12-H ) :   0.9578 
B(  3-N , 13-H ) :   0.9576 

-------
TIMINGS
-------

Total SCF time: 0 days 0 hours 0 min 5 sec 

Total time                  ....       5.141 sec
Sum of individual times     ....       4.713 sec  ( 91.7%)

SCF preparation             ....       0.168 sec  (  3.3%)
Fock matrix formation       ....       4.295 sec  ( 83.5%)
  Startup                   ....       0.004 sec  (  0.1% of F)
  Split-RI-J                ....       0.336 sec  (  7.8% of F)
  Chain of spheres X        ....       3.238 sec  ( 75.4% of F)
  XC integration            ....       0.994 sec  ( 23.2% of F)
    XC Preparation          ....       0.000 sec  (  0.0% of XC)
    Basis function eval.    ....       0.326 sec  ( 32.8% of XC)
    Density eval.           ....       0.163 sec  ( 16.4% of XC)
    XC-Functional eval.     ....       0.073 sec  (  7.3% of XC)
    XC-Potential eval.      ....       0.187 sec  ( 18.8% of XC)
Diagonalization             ....       0.000 sec  (  0.0%)
Density matrix formation    ....       0.022 sec  (  0.4%)
Total Energy calculation    ....       0.013 sec  (  0.2%)
Population analysis         ....       0.088 sec  (  1.7%)
Orbital Transformation      ....       0.017 sec  (  0.3%)
Orbital Orthonormalization  ....       0.000 sec  (  0.0%)
DIIS solution               ....       0.073 sec  (  1.4%)
SOSCF solution              ....       0.038 sec  (  0.7%)
Finished LeanSCF after   5.2 sec

Maximum memory used throughout the entire LEANSCF-calculation: 9.5 MB


-------------------------------------------------------------------------------
                          DFT DISPERSION CORRECTION                            
                                                                               
                              DFTD3 V3.1  Rev 1                                
                          USING Becke-Johnson damping                          
-------------------------------------------------------------------------------
The B3LYP functional is recognized
Active option DFTDOPT                   ...         4   

molecular C6(AA) [au] = 1326.740342 


            DFT-D V3
 parameters
 s6 scaling factor         :     1.0000 
 a1 scaling factor         :     0.3981 
 s8 scaling factor         :     1.9889 
 a2 scaling factor         :     4.4211 
 ad hoc parameters k1-k3   :    16.0000     1.3333    -4.0000 

 Edisp/kcal,au: -8.366110682662  -0.013332244589 
 E6   /kcal   :  -4.223957580 
 E8   /kcal   :  -4.142153103 
 % E8         :  49.511096137 

-------------------------   ----------------
Dispersion correction           -0.013332245
-------------------------   ----------------


-------------------------   --------------------
FINAL SINGLE POINT ENERGY      -165.032760536043
-------------------------   --------------------



           ************************************************************
           *        Program running with 6 parallel MPI-processes     *
           *              working on a common directory               *
           ************************************************************
------------------------------------------------------------------------------
                         ORCA SCF GRADIENT CALCULATION
------------------------------------------------------------------------------

Nuc. rep. gradient        (SHARK) ... done (  0.0 sec)
HCore & Overlap gradient  (SHARK) ... done (  0.0 sec)
Split-RIJ-J gradient      (SHARK) ... done (  0.2 sec)
done (  2.4 sec)
XC gradient                       ... done (  0.6 sec)
Dispersion correction             ... done (  0.1 sec)

-------------------
DISPERSION GRADIENT
-------------------

   1   N   :    0.000496917   -0.000103949    0.000042399
   2   B   :    0.000509124    0.000053945   -0.000247155
   3   B   :   -0.000666686    0.000045677   -0.000178534
   4   N   :   -0.000477663    0.000073543    0.000203022
   5   H   :    0.000121614   -0.000064255    0.000158918
   6   H   :    0.000138242   -0.000036969    0.000145825
   7   H   :    0.000148405   -0.000171990    0.000090655
   8   H   :    0.000188207   -0.000048196   -0.000135747
   9   H   :   -0.000059085    0.000083115   -0.000057111
  10   H   :    0.000348814    0.000063148   -0.000096387
  11   H   :   -0.000213751    0.000068517   -0.000110802
  12   H   :   -0.000196972   -0.000041683   -0.000105497
  13   H   :   -0.000174403   -0.000031412    0.000144110
  14   H   :   -0.000162764    0.000110509    0.000146306

Difference to translation invariance:
           :   -0.0000000000   -0.0000000000    0.0000000000

Difference to rotation invariance:
           :    0.0000000000   -0.0000000000   -0.0000000000

Norm of the Dispersion gradient    ...    0.0013831413
RMS gradient                       ...    0.0002134233
MAX gradient                       ...    0.0006666855

------------------
CARTESIAN GRADIENT
------------------

   1   N   :    0.000078029   -0.000210670    0.000134668
   2   B   :   -0.000079412    0.000078200   -0.000044147
   3   B   :    0.000064609    0.000062378    0.000090999
   4   N   :   -0.000008806   -0.000150410   -0.000082832
   5   H   :    0.000093963    0.000260790   -0.000035667
   6   H   :   -0.000069579    0.000111605   -0.000021154
   7   H   :   -0.000024456   -0.000085838   -0.000076673
   8   H   :   -0.000000510   -0.000055061    0.000004219
   9   H   :   -0.000006652   -0.000054946    0.000009639
  10   H   :    0.000024860    0.000021188    0.000028753
  11   H   :    0.000019954   -0.000001593    0.000007290
  12   H   :   -0.000024936    0.000004432   -0.000005624
  13   H   :   -0.000026161    0.000001639   -0.000001411
  14   H   :   -0.000040905    0.000018286   -0.000008062

Difference to translation invariance:
           :    0.0000000000    0.0000000000    0.0000000000

Difference to rotation invariance:
           :   -0.0000302826   -0.0001155213   -0.0001195640

Norm of the Cartesian gradient     ...    0.0005005740
RMS gradient                       ...    0.0000772402
MAX gradient                       ...    0.0002607903

-------
TIMINGS
-------

Total SCF gradient time     ....        3.224 sec

Densities                   ....       0.000 sec  (  0.0%)
One electron gradient       ....       0.028 sec  (  0.9%)
RI-J Coulomb gradient       ....       0.169 sec  (  5.2%)
COSX gradient               ....       2.386 sec  ( 74.0%)
XC gradient                 ....       0.587 sec  ( 18.2%)

Maximum memory used throughout the entire SCFGRAD-calculation: 27.4 MB


           ************************************************************
           *        Program running with 6 parallel MPI-processes     *
           *              working on a common directory               *
           ************************************************************

------------------------------------------------------------------------------
                              ORCA PROPERTY CALCULATIONS
------------------------------------------------------------------------------

GBWName                                 ... orca.gbw
Number of atoms                         ...     14
Number of basis functions               ...    106
Max core memory                         ...   4096 MB

Electric properties:
Dipole moment                           ... YES
Quadrupole moment                       ...  NO
Static polarizability (Dipole/Dipole)   ...  NO
Static polarizability (Dipole/Quad.)    ...  NO
Static polarizability (Quad./Quad.)     ...  NO
Static polarizability (Velocity)        ...  NO
Static hyperpolarizability              ...  NO

Atomic electric properties:
Dipole moment                           ...  NO
Quadrupole moment                       ...  NO
Static polarizability                   ...  NO

Choice of electric origin               ... Center of mass
Position of electric origin             ...    -0.308170     0.002533     0.170871

General magnetic properties:
Magnetizability                         ...  NO

EPR properties:
g-Tensor (aka g-matrix)                 ...  NO
Zero-Field splitting spin-orbit         ...  NO
Zero-field splitting spin-spin          ...  NO
Hyperfine couplings                     ...  NO (   0 nuclei)
Quadrupole couplings                    ...  NO (   0 nuclei)
Contact density                         ...  NO (   0 nuclei)

NMR properties:
Chemical shifts                         ...  NO (   0 nuclei)
Spin-rotation constants                 ...  NO (   0 nuclei)
Spin-spin couplings                     ...  NO (   0 nuclei,    0 pairs)

Choice of magnetic origin               ... GIAO
Position of magnetic origin             ...     0.000000     0.000000     0.000000

Properties with geometric perturbations:
SCF Hessian                             ...  NO
IR spectrum                             ...  NO
VCD spectrum                            ...  NO
X-ray spectroscopy properties:
SCF XES/XAS/RIXS spectra                ...  NO

SCF SOC stabilization energy            ...  NO
Diagonal Born-Oppenheimer correction    ...  NO

-------------
DIPOLE MOMENT
-------------

Method             : SCF
Type of density    : Electron Density
Multiplicity       :   1
Irrep              :   0
Energy             :  -165.0194282914534654 Eh
Basis              : AO
                                X                 Y                 Z
Electronic contribution:     -2.966793868      -0.423265819       2.278167591
Nuclear contribution   :      2.306626756      -0.376767800       0.270746524
                        -----------------------------------------
Total Dipole Moment    :     -0.660167112      -0.800033619       2.548914115
                        -----------------------------------------
Magnitude (a.u.)       :      2.751878917
Magnitude (Debye)      :      6.994720328



--------------------
Rotational spectrum 
--------------------
 
Rotational constants in cm-1:             0.342387             0.095539             0.081745 
Rotational constants in MHz :         10264.491152          2864.185998          2450.646360 

Dipole components along the rotational axes: 
x,y,z [a.u.] :     0.884341     2.597015     0.215152 
x,y,z [Debye]:     2.247816     6.601088     0.546872 

 

Dipole moment calculation done in   0.0 sec 

Maximum memory used throughout the entire PROP-calculation: 5.5 MB

--------------------------------
SUGGESTED CITATIONS FOR THIS RUN
--------------------------------

Below you find a list of papers that are relevant to this ORCA run
We neither can nor want to force you to cite these papers, but we appreciate if you do
You receive ORCA, which is the product of decades of hard work by many enthusiastic individuals, for free
The only thing we kindly ask in return is that you cite our papers,
We deeply appreciate it, if you show your appreciation for ORCA by not just citing the generic ORCA reference.

Please note that relegating all ORCA citations to the supporting information does *not* help us.
SI sections are not indexed - citations you put there will not count into any citation statistics
But we need these citations in order to attract the funding resources that allow us to do what we are doing

Therefore, if you are a happy ORCA user, please consider citing a few of the papers listed below in the main body of your paper

In addition to the list printed below, the program has created the file orca.bibtex that contains the list in bibtex format
You can import this file easily into all common literature databanks and citation aid programs


List of essential papers. We consider these as the minimum necessary citations

  1. Neese, F.
     Software update: the ORCA program system, version 6.0
     WIRES Comput. Molec. Sci. 2025 15(1), e70019
     doi.org/10.1002/wcms.7019

List of papers to cite with high priority. The work reported in these papers was absolutely
necessary for this run to complete.
Our perspective: the developers of density functionals and basis sets usually get cited in chemistry papers
Good! But without the algorithms to do something with them, the functionals or basis sets would not do anything.
Hence, in our opinion, the algorithm design and method developments papers are equally worthy of getting cited

  1. Neese, F.
     An improvement of the resolution of the identity approximation for the formation of the Coulomb matrix
     J. Comp. Chem. 2003 24(14), 1740-1747
     doi.org/10.1002/jcc.10318
  2. Neese, F.; Wennmohs, F.; Hansen, A.; Becker, U.
     Efficient, approximate and parallel Hartree-Fock and hybrid DFT calculations. A 'chain-of-spheres' algorithm for the Hartree-Fock exchange
     Chem. Phys. 2009 356(1-3), 98-109
     doi.org/10.1016/j.chemphys.2008.10.036
  3. Grimme, S.; Antony, J.; Ehrlich, S.; Krieg, H.
     A consistent and accurate ab initio parametrization of density functional dispersion correction (DFT-D) for the 94 elements H-Pu
     J. Chem. Phys. 2010 132 , 154104
     doi.org/10.1063/1.3382344
  4. Grimme, S.; Ehrlich, S.; Goerigk, L.
     Effect of the damping function in dispersion corrected density functional theory
     J. Comput. Chem. 2011 32(7), 1456-1465
     doi.org/10.1002/jcc.21759
  5. Helmich-Paris, B.; de Souza, B.; Neese, F.; Izsák, R.
     An improved chain of spheres for exchange algorithm
     J. Chem. Phys. 2021 155(10), 104109
     doi.org/10.1063/5.0058766
  6. Neese, F.
     The SHARK Integral Generation and Digestion System
     J. Comp. Chem. 2022 44(3), 381
     doi.org/10.1002/jcc.26942

List of suggested additional citations. These are papers that are important in the 'surrounding' of 
of this run, or papers that preceded the highly important papers. If you like your results we are grateful for a citation.

  1. Izsak, R.; Neese, F.
     An overlap fitted chain of spheres exchange method
     J. Chem. Phys. 2011 135 , 144105
     doi.org/10.1063/1.3646921
  2. Izsak, R.; Hansen, A.; Neese, F.
     The resolution of identity and chain of spheres approximations for the LPNO-CCSD singles Fock term
     Molec. Phys. 2012 110 , 2413-2417
     doi.org/10.1080/00268976.2012.687466
  3. Neese, F.
     The ORCA program system
     WIRES Comput. Molec. Sci. 2012 2(1), 73-78
     doi.org/10.1002/wcms.81
  4. Izsak, R.; Neese, F.; Klopper, W.
     Robust fitting techniques in the chain of spheres approximation to the Fock exchange: The role of the complementary space
     J. Chem. Phys. 2013 139 , 
     doi.org/10.1063/1.4819264
  5. Neese, F.
     Software update: the ORCA program system, version 4.0
     WIRES Comput. Molec. Sci. 2018 8(1), 1-6
     doi.org/10.1002/wcms.1327
  6. Neese, F.; Wennmohs, F.; Becker, U.; Riplinger, C.
     The ORCA quantum chemistry program package
     J. Chem. Phys. 2020 152(22), 224108
     doi.org/10.1063/5.0004608
  7. Neese, F.
     Software update: The ORCA program system—Version 5.0
     WIRES Comput. Molec. Sci. 2022 12(1), e1606
     doi.org/10.1002/wcms.1606

List of optional additional citations

  1. Neese, F.
     Approximate second-order SCF convergence for spin unrestricted wavefunctions
     Chem. Phys. Lett. 2000 325(1-3), 93-98
     doi.org/10.1016/s0009-2614(00)00662-x

Timings for individual modules:

Sum of individual times          ...       11.439 sec (=   0.191 min)
Startup calculation              ...        1.246 sec (=   0.021 min)  10.9 %
SCF iterations                   ...        6.081 sec (=   0.101 min)  53.2 %
Property calculations            ...        0.444 sec (=   0.007 min)   3.9 %
SCF Gradient evaluation          ...        3.669 sec (=   0.061 min)  32.1 %
                             ****ORCA TERMINATED NORMALLY****
TOTAL RUN TIME: 0 days 0 hours 0 minutes 12 seconds 27 msec
