
                                 *****************
                                 * O   R   C   A *
                                 *****************

                                            #,                                       
                                            ###                                      
                                            ####                                     
                                            #####                                    
                                            ######                                   
                                           ########,                                 
                                     ,,################,,,,,                         
                               ,,#################################,,                 
                          ,,##########################################,,             
                       ,#########################################, ''#####,          
                    ,#############################################,,   '####,        
                  ,##################################################,,,,####,       
                ,###########''''           ''''###############################       
              ,#####''   ,,,,##########,,,,          '''####'''          '####       
            ,##' ,,,,###########################,,,                        '##       
           ' ,,###''''                  '''############,,,                           
         ,,##''                                '''############,,,,        ,,,,,,###''
      ,#''                                            '''#######################'''  
     '                                                          ''''####''''         
             ,#######,   #######,   ,#######,      ##                                
            ,#'     '#,  ##    ##  ,#'     '#,    #''#        ,####,    ,#,          
            ##       ##  ##   ,#'  ##            #'  '#       #'       ,# #          
            ##       ##  #######   ##           ,######,      #####,      #          
            '#,     ,#'  ##    ##  '#,     ,#' ,#      #,     #,   #      #          
             '#######'   ##     ##  '#######'  #'      '#     '####' #    #          



                #########################################################
                #                        -***-                          #
                #          Department of theory and spectroscopy        #
                #                                                       #
                #                      Frank Neese                      #
                #                                                       #
                #     Directorship, Architecture, Infrastructure        #
                #                    SHARK, DRIVERS                     #
                #        Core code/Algorithms in most modules           #
                #                                                       #
                #        Max Planck Institute fuer Kohlenforschung      #
                #                Kaiser Wilhelm Platz 1                 #
                #                 D-45470 Muelheim/Ruhr                 #
                #                      Germany                          #
                #                                                       #
                #                  All rights reserved                  #
                #                        -***-                          #
                #########################################################


                         Program Version 6.1.0  -  RELEASE   -
                                (GIT: $679e74b$)
                          ($2025-06-10 18:02:51 +0200$)


 With contributions from (in alphabetic order):
[Max-Planck-Institut fuer Kohlenforschung]                               
  Daniel Aravena         : Magnetic Suceptibility                        
  Michael Atanasov       : Ab Initio Ligand Field Theory (pilot matlab implementation)
  Alexander A. Auer      : GIAO ZORA, VPT2 properties, NMR spectrum      
  Ute Becker             : All parallelization in ORCA, NUMFREQ, NUMCALC 
  Giovanni Bistoni       : ED, misc. LED, open-shell LED, HFLD           
  Dmytro Bykov           : pre 5.0 version of the SCF Hessian            
  Marcos Casanova-Páez   : Triplet and SCS-CIS(D). UHF-(DLPNO)-IP/EA/STEOM-CCSD. UHF-CVS-IP/STEOM-CCSD   
  Vijay G. Chilkuri      : MRCI spin determinant printing, contributions to CSF-ICE 
  Pauline Colinet        : FMM embedding                                 
  Dipayan Datta          : RHF DLPNO-CCSD density                        
  Achintya Kumar Dutta   : EOM-CC, STEOM-CC                              
  Nicolas Foglia         : Exact transition moments, OPA infrastructure, MCD improvements    
  Dmitry Ganyushin       : Spin-Orbit,Spin-Spin,Magnetic field MRCI      
  Miquel Garcia-Rates    : C-PCM and meta-GGA Hessian, CCSD/C-PCM, Gaussian charge scheme 
  Tiago L. C. Gouveia    : GS-ROHF, GS-ROCIS                             
  Yang Guo               : DLPNO-NEVPT2, F12-NEVPT2, CIM, IAO-localization        
  Andreas Hansen         : Spin unrestricted coupled pair/coupled cluster methods 
  Ingolf Harden          : AUTO-CI MPn and infrastructure                
  Benjamin Helmich-Paris : MC-RPA, TRAH-(SCF,CASSCF), AVAS, COSX integrals, SCF dyn. polar., MC-PDFT, srDFT 
  Lee Huntington         : MR-EOM, pCC                                   
  Robert Izsak           : Overlap fitted RIJCOSX, COSX-SCS-MP3, EOM     
  Riya Kayal             : Wick's Theorem for AUTO-CI, AUTO-CI UHF-CCSDT 
  Emily Kempfer          : AUTO-CI RHF CISDT and CCSDT, approximate NEVPT4
  Christian Kollmar      : KDIIS, OOCD, Brueckner-CCSD(T), CCSD density, CASPT2, CASPT2-K, improved NEVPT2 
  Axel Koslowski         : Symmetry handling                             
  Simone Kossmann        : meta-GGA functionals, TD-DFT gradient, OOMP2, (MP2 Hessian; deprecated post 5.0) 
  Lucas Lang             : DCDCAS, Hyperfine gauge corrections, ICE-SOC+SSC
  Marvin Lechner         : AUTO-CI (C++ implementation), FIC-MRCC        
  Spencer Leger          : CASSCF response                               
  Dagmar Lenk            : GEPOL surface, SMD, ORCA-2-JSON               
  Dimitrios Liakos       : Extrapolation schemes; Compound Job, Property file
  Dimitrios Manganas     : Further ROCIS development; embedding schemes. LFT, Crystal Embedding 
  Dimitrios Pantazis     : SARC Basis sets                               
  Anastasios Papadopoulos: AUTO-CI, single reference methods and gradients 
  Taras Petrenko         : pre 6.0 DFT Hessian and TD-DFT gradient,  ECA, NRVS 
  Petra Pikulova         : Analytic Raman intensities                    
  Peter Pinski           : DLPNO-MP2, DLPNO-MP2 Gradient                 
  Shashank Vittal Rao    : ES-AILFT, MagRelax                            
  Christoph Reimann      : Effective Core Potentials                     
  Marius Retegan         : Local ZFS, SOC                                
  Christoph Riplinger    : Optimizer, TS searches, QM/MM, DLPNO-CCSD(T), (RO)-DLPNO pert. Triples 
  Michael Roemelt        : Original ROCIS implementation, recursive CI coupling coefficients
  Masaaki Saitow         : Open-shell DLPNO-CCSD energy and density      
  Barbara Sandhoefer     : DKH picture change effects                    
  Yorick L. A. Schmerwitz: GMF and freeze-and-release deltaSCF, NEB S-IDPP initial path                    
  Kantharuban Sivalingam : CASSCF convergence/infrastructure, NEVPT2, NEVPT3, NEVPT4(SD), FIC-MRCI and CEPA variants
  Bernardo de Souza      : ESD, SOC TD-DFT                               
  Georgi L. Stoychev     : AutoAux, RI-MP2 NMR, DLPNO-MP2 response, X2C  
  Van Anh Tran           : RI-MP2 g-tensors                              
  Willem Van den Heuvel  : Paramagnetic NMR                              
  Zikuan Wang            : NOTCH, Electric field optimization            
  Frank Wennmohs         : Technical directorship and infrastructure     
  Hang Xu                : AUTO-CI-Response properties                   
                                                                         
[FACCTs GmbH]                                                            
  Markus Bursch, Nicolas Foglia, Miquel Garcia-Rates, Ingolf Harden, Hagen Neugebauer, Anastasios Papadopoulos, 
  Christoph Riplinger, Bernardo de Souza, Georgi L. Stoychev                                                    
                                                                 
  APM, various basis sets, CI-OPT, improved COSX, DLPNO-Multilevel,           
  DOCKER, DRACO, updates on ESD, Fragmentator, GOAT, IRC, LR-CPCM, L-BFGS, MBIS, meta-GGA TD-DFT gradient, ML-optimized integration grids, 
  MM, NACMEs, nearIR, NEB, NEB-TS, NL-DFT gradient (VV10), 2- and 3-layer-ONIOM, interface openCOSMO-RS, QMMM,   
  Crystal-QMMM, RESP, rigid body optimization, SF, symmetry and pop. for TD-DFT, various functionals, SOLVATOR                                   
                                                                         
[Other institutions]                                                     
  V. Asgeirsson          : NEB                                           
  Christoph Bannwarth    : sTDA-DFT, sTD-DFT, PBEh-3c, B97-3c, D3        
  Giovanni Bistoni       : ETS/NOCV, ADLD/ADEX, COVALED                  
  Martin Brehm           : Molecular dynamics                            
  Ronald Cardenas        : ETS/NOCV                                      
  Martina Colucci        : COVALED                                       
  Sebastian Ehlert       : rSCAN, r2SCAN, r2SCAN-3c, D4, dhf basis sets  
  Marvin Friede          : D4 for Fr, Ra, Ac-Lr                          
  Lars Goerigk           : TD-DFT with DH, B97 family of functionals     
  Stefan Grimme          : VdW corrections, initial TS optimization, DFT functionals, gCP, sTDA/sTD-DF 
  Waldemar Hujo          : DFT-NL                                        
  H. Jonsson             : NEB                                           
  Holger Kruse           : gCP                                           
  Marcel Mueller         : wB97X-3c, vDZP basis set                      
  Hagen Neugebauer       : wr2SCAN, Native XTB                           
  Gianluca Regni         : ADLD/ADEX                                     
  Tobias Risthaus        : pre 6.0 range-separated hybrid DFT and stability analysis
  Lukas Wittmann         : regularized MP2, r2SCAN double-hybrids, wr2SCAN        
                                                                         
We gratefully acknowledge several colleagues who have allowed us to      
interface, adapt or use parts of their codes:                            
  Ed Valeev, F. Pavosevic, A. Kumar             : LibInt (2-el integral package), F12 methods 
  Garnet Chan, S. Sharma, J. Yang, R. Olivares  : DMRG                   
  Ulf Ekstrom                                   : XCFun DFT Library      
  Mihaly Kallay                                 : mrcc  (arbitrary order and MRCC methods)
  Frank Weinhold                                : gennbo (NPA and NBO analysis)           
  Simon Mueller                                 : openCOSMO-RS                            
  Christopher J. Cramer and Donald G. Truhlar   : smd solvation model                     
  S Lehtola, MJT Oliveira, MAL Marques          : LibXC Library                           
  Liviu Ungur et al                             : ANISO software                          


 Your calculation uses the libint2 library for the computation of 2-el integrals
 For citations please refer to: http://libint.valeyev.net

 Your ORCA version has been built with support for libXC version: 7.0.0
 For citations please refer to: https://libxc.gitlab.io

 This ORCA versions uses:
   CBLAS   interface :  Fast vector & matrix operations
   LAPACKE interface :  Fast linear algebra routines
   SCALAPACK package :  Parallel linear algebra routines
   Shared memory     :  Shared parallel matrices
   BLAS/LAPACK       :  OpenBLAS 0.3.29  USE64BITINT DYNAMIC_ARCH NO_AFFINITY Zen SINGLE_THREADED
        Core in use  :  Zen
   Copyright (c) 2011-2014, The OpenBLAS Project


  ***********************************
  * Starting time: Wed Sep 10 13:36:28 2025
  * Host name:     wyk-Server
  * Process ID:    2299998
  * Working dir.:  /home/wyk/Documents/code/openQDC/MGMR/singlepointcalc/70/prod
  ***********************************

Your calculation utilizes the atom-pairwise dispersion correction
with the Becke-Johnson damping scheme (D3BJ)


Warning: RI is on but no J-basis has been assigned. Assigning Def2/J (nothing to worry about!)
================================================================================

----- Orbital basis set information -----
Your calculation utilizes the basis: def2-SVP
   F. Weigend and R. Ahlrichs, Phys. Chem. Chem. Phys. 7, 3297 (2005).

----- AuxJ basis set information -----
Your calculation utilizes the auxiliary basis: def2/J
   H-Rn: F. Weigend, Phys. Chem. Chem. Phys. 8, 1057 (2006).
   Fr-Lr: K. Eichkorn, F. Weigend, O. Treutler, R. Ahlrichs; Theor. Chem. Acc. 97, 119 (1997).

================================================================================
                                        WARNINGS
                       Please study these warnings very carefully!
================================================================================


================================================================================
                                       INPUT FILE
================================================================================
NAME = orca.inp
|  1> ! B3LYP def2-SVP d3 EnGrad 
|  2> %pal nprocs 6 end 
|  3> *xyz 0 1 
|  4> C   -1.32079973217601 0.42567773495474 -0.23631001264401
|  5> C   0.0452560299562 1.04726493821129 -0.4973776338658
|  6> C   1.08682218603532 -0.0471865565388 -0.3764137510888
|  7> C   1.03842753635559 1.06846591197701 0.63883663510874
|  8> C   -1.01780113872525 -0.90484492295815 0.48790070024425
|  9> C   0.36564398034658 -1.34606339980396 -0.03954774637912
| 10> H   0.12745408242045 1.81858223535424 -1.2694584651686
| 11> H   -1.99411576893326 1.0759991034116 0.34771581508966
| 12> H   -1.81576790233182 0.23295050117392 -1.20411543944536
| 13> H   -0.97250304016204 -0.74026613166639 1.57642313707908
| 14> H   -1.79641128922781 -1.66520837673018 0.3206966163454
| 15> H   0.25308703570688 -1.94124088779108 -0.9626295847099
| 16> H   0.90967970532839 -1.97429427656022 0.68626995277231
| 17> H   1.83250661383491 1.81880817893873 0.58870869451625
| 18> H   0.69657505341507 0.85610172190859 1.65742228708079
| 19> H   1.94153364815682 -0.08825277388137 -1.05858320493491
| 20> *
| 21> 
| 22>                          ****END OF INPUT****
================================================================================

                     *******************************
                     * Energy+Gradient Calculation *
                     *******************************

---------------------------------
CARTESIAN COORDINATES (ANGSTROEM)
---------------------------------
  C     -1.320800    0.425678   -0.236310
  C      0.045256    1.047265   -0.497378
  C      1.086822   -0.047187   -0.376414
  C      1.038428    1.068466    0.638837
  C     -1.017801   -0.904845    0.487901
  C      0.365644   -1.346063   -0.039548
  H      0.127454    1.818582   -1.269458
  H     -1.994116    1.075999    0.347716
  H     -1.815768    0.232951   -1.204115
  H     -0.972503   -0.740266    1.576423
  H     -1.796411   -1.665208    0.320697
  H      0.253087   -1.941241   -0.962630
  H      0.909680   -1.974294    0.686270
  H      1.832507    1.818808    0.588709
  H      0.696575    0.856102    1.657422
  H      1.941534   -0.088253   -1.058583

----------------------------
CARTESIAN COORDINATES (A.U.)
----------------------------
  NO LB      ZA    FRAG     MASS         X           Y           Z
   0 C     6.0000    0    12.011   -2.495950    0.804414   -0.446561
   1 C     6.0000    0    12.011    0.085522    1.979044   -0.939908
   2 C     6.0000    0    12.011    2.053796   -0.089170   -0.711319
   3 C     6.0000    0    12.011    1.962344    2.019108    1.207226
   4 C     6.0000    0    12.011   -1.923365   -1.709909    0.921999
   5 C     6.0000    0    12.011    0.690967   -2.543691   -0.074734
   6 H     1.0000    0     1.008    0.240853    3.436622   -2.398929
   7 H     1.0000    0     1.008   -3.768333    2.033344    0.657088
   8 H     1.0000    0     1.008   -3.431304    0.440213   -2.275448
   9 H     1.0000    0     1.008   -1.837764   -1.398900    2.979008
  10 H     1.0000    0     1.008   -3.394725   -3.146788    0.606029
  11 H     1.0000    0     1.008    0.478265   -3.668414   -1.819106
  12 H     1.0000    0     1.008    1.719046   -3.730875    1.296862
  13 H     1.0000    0     1.008    3.462936    3.437049    1.112498
  14 H     1.0000    0     1.008    1.316336    1.617798    3.132074
  15 H     1.0000    0     1.008    3.668967   -0.166774   -2.000432

--------------------------------
INTERNAL COORDINATES (ANGSTROEM)
--------------------------------
 C      0   0   0     0.000000000000     0.00000000     0.00000000
 C      1   0   0     1.523363154129     0.00000000     0.00000000
 C      2   1   0     1.515690071481   107.93366056     0.00000000
 C      3   2   1     1.509223581613    59.85912175   247.70027299
 C      1   2   3     1.544855930990   104.82595832    18.36712797
 C      3   2   1     1.523370527304   107.93854881   359.96251638
 H      2   1   3     1.094438533115   118.41249101   142.07560133
 H      1   2   3     1.103339718802   113.41875895   141.19412426
 H      1   2   3     1.103985788067   108.84718981   260.24662858
 H      5   1   2     1.101825390781   110.03208238    88.98049084
 H      5   1   2     1.101064736503   112.63615908   207.50497777
 H      6   3   2     1.104076713027   108.84522314    99.78265899
 H      6   3   2     1.103385806039   113.42224921   218.83495979
 H      4   3   2     1.093658040389   116.93980389   252.84665913
 H      4   3   2     1.095207012267   119.49226354   109.15111826
 H      3   2   1     1.094336914049   120.93492153   140.93286801

---------------------------
INTERNAL COORDINATES (A.U.)
---------------------------
 C      0   0   0     0.000000000000     0.00000000     0.00000000
 C      1   0   0     2.878739163810     0.00000000     0.00000000
 C      2   1   0     2.864239139003   107.93366056     0.00000000
 C      3   2   1     2.852019244105    59.85912175   247.70027299
 C      1   2   3     2.919354625935   104.82595832    18.36712797
 C      3   2   1     2.878753097093   107.93854881   359.96251638
 H      2   1   3     2.068189097997   118.41249101   142.07560133
 H      1   2   3     2.085009901213   113.41875895   141.19412426
 H      1   2   3     2.086230795188   108.84718981   260.24662858
 H      5   1   2     2.082148235977   110.03208238    88.98049084
 H      5   1   2     2.080710807709   112.63615908   207.50497777
 H      6   3   2     2.086402618462   108.84522314    99.78265899
 H      6   3   2     2.085096993469   113.42224921   218.83495979
 H      4   3   2     2.066714180496   116.93980389   252.84665913
 H      4   3   2     2.069641313135   119.49226354   109.15111826
 H      3   2   1     2.067997065792   120.93492153   140.93286801

---------------------
BASIS SET INFORMATION
---------------------
There are 2 groups of distinct atoms

 Group   1 Type C   : 7s4p1d contracted to 3s2p1d pattern {511/31/1}
 Group   2 Type H   : 4s1p contracted to 2s1p pattern {31/1}

Atom   0C    basis set group =>   1
Atom   1C    basis set group =>   1
Atom   2C    basis set group =>   1
Atom   3C    basis set group =>   1
Atom   4C    basis set group =>   1
Atom   5C    basis set group =>   1
Atom   6H    basis set group =>   2
Atom   7H    basis set group =>   2
Atom   8H    basis set group =>   2
Atom   9H    basis set group =>   2
Atom  10H    basis set group =>   2
Atom  11H    basis set group =>   2
Atom  12H    basis set group =>   2
Atom  13H    basis set group =>   2
Atom  14H    basis set group =>   2
Atom  15H    basis set group =>   2
---------------------------------
AUXILIARY/J BASIS SET INFORMATION
---------------------------------
There are 2 groups of distinct atoms

 Group   1 Type C   : 12s5p4d2f1g contracted to 6s4p3d1f1g pattern {711111/2111/211/2/1}
 Group   2 Type H   : 5s2p1d contracted to 3s1p1d pattern {311/2/1}

Atom   0C    basis set group =>   1
Atom   1C    basis set group =>   1
Atom   2C    basis set group =>   1
Atom   3C    basis set group =>   1
Atom   4C    basis set group =>   1
Atom   5C    basis set group =>   1
Atom   6H    basis set group =>   2
Atom   7H    basis set group =>   2
Atom   8H    basis set group =>   2
Atom   9H    basis set group =>   2
Atom  10H    basis set group =>   2
Atom  11H    basis set group =>   2
Atom  12H    basis set group =>   2
Atom  13H    basis set group =>   2
Atom  14H    basis set group =>   2
Atom  15H    basis set group =>   2


           ************************************************************
           *        Program running with 6 parallel MPI-processes     *
           *              working on a common directory               *
           ************************************************************
------------------------------------------------------------------------------
                             ORCA STARTUP CALCULATIONS
                           -- RI-GTO INTEGRALS CHOSEN --
------------------------------------------------------------------------------
------------------------------------------------------------------------------
                   ___                                                        
                  /   \      - P O W E R E D   B Y -                         
                 /     \                                                     
                 |  |  |   _    _      __       _____    __    __             
                 |  |  |  | |  | |    /  \     |  _  \  |  |  /  |          
                  \  \/   | |  | |   /    \    | | | |  |  | /  /          
                 / \  \   | |__| |  /  /\  \   | |_| |  |  |/  /          
                |  |  |   |  __  | /  /__\  \  |    /   |      \           
                |  |  |   | |  | | |   __   |  |    \   |  |\   \          
                \     /   | |  | | |  |  |  |  | |\  \  |  | \   \       
                 \___/    |_|  |_| |__|  |__|  |_| \__\ |__|  \__/        
                                                                              
                      - O R C A' S   B I G   F R I E N D -                    
                                      &                                       
                       - I N T E G R A L  F E E D E R -                       
                                                                              
 v1 FN, 2020, v2 2021, v3 2022-2024                                           
------------------------------------------------------------------------------


----------------------
SHARK INTEGRAL PACKAGE
----------------------

Number of atoms                             ...     16
Number of basis functions                   ...    134
Number of shells                            ...     66
Maximum angular momentum                    ...      2
Integral batch strategy                     ... SHARK/LIBINT Hybrid
RI-J (if used) integral strategy            ... SPLIT-RIJ (Revised 2003 algorithm where possible)
Printlevel                                  ...      1
Contraction scheme used                     ... SEGMENTED contraction
Prescreening option                         ... SCHWARTZ
   Thresh                                   ... 2.500e-11
   Tcut                                     ... 2.500e-12
   Tpresel                                  ... 2.500e-12 
Coulomb Range Separation                    ... NOT USED
Exchange Range Separation                   ... NOT USED
Multipole approximations                    ... NOT USED
Finite Nucleus Model                        ... NOT USED
CABS basis                                  ... NOT available
Auxiliary Coulomb fitting basis             ... AVAILABLE
   # of basis functions in Aux-J            ...    404
   # of shells in Aux-J                     ...    140
   Maximum angular momentum in Aux-J        ...      4
Auxiliary J/K fitting basis                 ... NOT available
Auxiliary Correlation fitting basis         ... NOT available
Auxiliary 'external' fitting basis          ... NOT available

Checking pre-screening integrals            ... done (  0.0 sec) Dimension = 66
   => SHARK Basis and OBASIS are compatible. Storing Pre-screening
Shell pair information
Shell pair cut-off parameter TPreSel        ...   2.5e-12
Total number of shell pairs                 ...      2211
Shell pairs after pre-screening             ...      2196
Total number of primitive shell pairs       ...      7611
Primitive shell pairs kept                  ...      6008
          la=0 lb=0:    733 shell pairs
          la=1 lb=0:    830 shell pairs
          la=1 lb=1:    252 shell pairs
          la=2 lb=0:    228 shell pairs
          la=2 lb=1:    132 shell pairs
          la=2 lb=2:     21 shell pairs

Checking whether 4 symmetric matrices of dimension 134 fit in memory
:Max Core in MB      =   4096.00
 MB in use           =      6.14
 MB left             =   4089.86
 MB needed           =      0.28
 Data fit in memory  = YES
Calculating RI/J V-Matrix + Cholesky decomp.... done (  0.0 sec)
Calculating Nuclear repulsion               ... done (  0.0 sec) ENN=    243.632964940695 Eh

Diagonalization of the overlap matrix:
Smallest eigenvalue                        ... 9.646e-04
Time for diagonalization                   ...    0.003 sec
Threshold for overlap eigenvalues          ... 1.000e-07
Number of eigenvalues below threshold      ... 0
Time for construction of square roots      ...    0.001 sec
Total time needed                          ...    0.005 sec

-------------------
DFT GRID GENERATION
-------------------

General Integration Accuracy     IntAcc      ... 4.388
Radial Grid Type                 RadialGrid  ... OptM3 with GC (2021)
Angular Grid (max. ang.)         AngularGrid ... 4 (Lebedev-302)
Angular grid pruning method      GridPruning ... 4 (adaptive)
Weight generation scheme         WeightScheme... mBecke (2022)
Basis function cutoff            BFCut       ... 1.0000e-11
Integration weight cutoff        WCut        ... 1.0000e-14
Partially contracted basis set               ... off
Rotationally invariant grid construction     ... off
Angular grids for H and He will be reduced by one unit

Total number of grid points                  ...    67998
Total number of batches                      ...     1071
Average number of points per batch           ...       63
Average number of grid points per atom       ...     4250

--------------------
COSX GRID GENERATION
--------------------

GRIDX 1
-------
General Integration Accuracy     IntAcc      ... 3.816
Radial Grid Type                 RadialGrid  ... OptM3 with GC (2021)
Angular Grid (max. ang.)         AngularGrid ... 1 (Lebedev-50)
Angular grid pruning method      GridPruning ... 4 (adaptive)
Weight generation scheme         WeightScheme... mBecke (2022)
Basis function cutoff            BFCut       ... 1.0000e-11
Integration weight cutoff        WCut        ... 1.0000e-14
Partially contracted basis set               ... on
Rotationally invariant grid construction     ... off
Angular grids for H and He will be reduced by one unit

Total number of grid points                  ...     8692
Total number of batches                      ...       80
Average number of points per batch           ...      108
Average number of grid points per atom       ...      543
UseSFitting                                  ... on

GRIDX 2
-------
General Integration Accuracy     IntAcc      ... 4.020
Radial Grid Type                 RadialGrid  ... OptM3 with GC (2021)
Angular Grid (max. ang.)         AngularGrid ... 2 (Lebedev-110)
Angular grid pruning method      GridPruning ... 4 (adaptive)
Weight generation scheme         WeightScheme... mBecke (2022)
Basis function cutoff            BFCut       ... 1.0000e-11
Integration weight cutoff        WCut        ... 1.0000e-14
Partially contracted basis set               ... on
Rotationally invariant grid construction     ... off
Angular grids for H and He will be reduced by one unit

Total number of grid points                  ...    18240
Total number of batches                      ...      152
Average number of points per batch           ...      120
Average number of grid points per atom       ...     1140
UseSFitting                                  ... on

GRIDX 3
-------
General Integration Accuracy     IntAcc      ... 4.338
Radial Grid Type                 RadialGrid  ... OptM3 with GC (2021)
Angular Grid (max. ang.)         AngularGrid ... 3 (Lebedev-194)
Angular grid pruning method      GridPruning ... 4 (adaptive)
Weight generation scheme         WeightScheme... mBecke (2022)
Basis function cutoff            BFCut       ... 1.0000e-11
Integration weight cutoff        WCut        ... 1.0000e-14
Partially contracted basis set               ... on
Rotationally invariant grid construction     ... off
Angular grids for H and He will be reduced by one unit

Total number of grid points                  ...    39948
Total number of batches                      ...      320
Average number of points per batch           ...      124
Average number of grid points per atom       ...     2497
UseSFitting                                  ... on
Grids setup in   0.9 sec
Initializing property integral containers    ... done (  0.0 sec)

SHARK setup successfully completed in   1.0 seconds

Maximum memory used throughout the entire STARTUP-calculation: 18.3 MB


           ************************************************************
           *        Program running with 6 parallel MPI-processes     *
           *              working on a common directory               *
           ************************************************************
-------------------------------------------------------------------------------
                                 ORCA GUESS
                   Start orbitals & Density for SCF / CASSCF
-------------------------------------------------------------------------------

------------
SCF SETTINGS
------------
Hamiltonian:
 Density Functional     Method          .... DFT(GTOs)
 Exchange Functional    Exchange        .... B88
   X-Alpha parameter    XAlpha          ....  0.666667
   Becke's b parameter  XBeta           ....  0.004200
 Correlation Functional Correlation     .... LYP
 LDA part of GGA corr.  LDAOpt          .... VWN-5
 Gradients option       PostSCFGGA      .... off
 Hybrid DFT is turned on
   Fraction HF Exchange ScalHFX         ....  0.200000
   Scaling of DF-GGA-X  ScalDFX         ....  0.720000
   Scaling of DF-GGA-C  ScalDFC         ....  0.810000
   Scaling of DF-LDA-C  ScalLDAC        ....  1.000000
   Perturbative correction              ....  0.000000
   NL short-range parameter             ....  4.800000
 RI-approximation to the Coulomb term is turned on
   Number of AuxJ basis functions       .... 404
   RIJ-COSX (HFX calculated with COS-X)).... on


General Settings:
 Integral files         IntName         .... orca
 Hartree-Fock type      HFTyp           .... RHF
 Total Charge           Charge          ....    0
 Multiplicity           Mult            ....    1
 Number of Electrons    NEL             ....   46
 Basis Dimension        Dim             ....  134
 Nuclear Repulsion      ENuc            ....    243.6329649407 Eh

Convergence Acceleration:
 AO-DIIS                CNVDIIS         .... on
   Start iteration      DIISMaxIt       ....    12
   Startup error        DIISStart       ....  0.200000
   # of expansion vecs  DIISMaxEq       ....     5
   Bias factor          DIISBfac        ....   1.050
   Max. coefficient     DIISMaxC        ....  10.000
 MO-DIIS                CNVKDIIS        .... off
 Trust-Rad. Augm. Hess. CNVTRAH         .... auto
   Auto Start mean grad. ratio tolernc. ....  1.125000
   Auto Start start iteration           ....    50
   Auto Start num. interpolation iter.  ....    10
   Max. Number of Micro iterations      ....    24
   Max. Number of Macro iterations      .... Maxiter - #DIIS iter
   Number of Davidson start vectors     ....     2
   Converg. threshold    (grad. norm)   ....   1.000e-05
   Grad. Scal. Fac. for Micro threshold ....   0.100
   Minimum threshold for Micro iter.    ....   1.000e-02
   NR start threshold (gradient norm)   ....   1.000e-04
   Initial trust radius                 ....   0.400
   Minimum AH scaling param. (alpha)    ....   1.000
   Maximum AH scaling param. (alpha)    .... 1000.000
   Quad. conv. algorithm                .... NR
   White noise on init. David. guess    .... on
   Maximum white noise                  ....   0.010
   Pseudo random numbers                .... off
   Inactive MOs                         .... canonical
   Orbital update algorithm             .... Taylor
   Preconditioner                       .... Diag
   Full preconditioner red. dimension   ....   250
 SOSCF                 CNVSOSCF           .... on
   Start iteration     SOSCFMaxIt         ....   150
   Startup grad/error  SOSCFStart         ....  0.003300
   Hessian update      SOSCFHessUp        .... L-BFGS
   Autom. constraints  SOSCFAutoConstrain .... off
 Level Shifting         CNVShift        .... on
   Level shift para.    LevelShift      ....    0.2500
   Turn off err/grad.   ShiftErr        ....    0.0010
 Zerner damping         CNVZerner       .... off
 Static damping         CNVDamp         .... on
   Fraction old density DampFac         ....    0.7000
   Max. Damping (<1)    DampMax         ....    0.9800
   Min. Damping (>=0)   DampMin         ....    0.0000
   Turn off err/grad.   DampErr         ....    0.1000

SCF Procedure:
 Maximum # iterations   MaxIter         ....   125
 SCF integral mode      SCFMode         .... Direct
   Integral package                     .... SHARK and LIBINT hybrid scheme
 Reset frequency        DirectResetFreq ....    20
 Integral Threshold     Thresh          ....  2.500e-11 Eh
 Primitive CutOff       TCut            ....  2.500e-12 Eh

Convergence Tolerance:
 Convergence Check Mode ConvCheckMode   .... Total+1el-Energy
 Convergence forced     ConvForced      .... 0
 Energy Change          TolE            ....  1.000e-08 Eh
 1-El. energy change                    ....  1.000e-05 Eh
 Orbital Gradient       TolG            ....  1.000e-05
 Orbital Rotation angle TolX            ....  1.000e-05
 DIIS Error             TolErr          ....  5.000e-07

------------------------------
INITIAL GUESS: MODEL POTENTIAL
------------------------------
Loading Hartree-Fock densities                     ... done
Calculating cut-offs                               ... done
Initializing the effective Hamiltonian             ... done
Setting up the integral package (SHARK)            ... done
Starting the Coulomb interaction                   ... done (   0.0 sec)
Making the grid                                    ... done (   0.1 sec)
Mapping shells                                     ... done
Starting the XC term evaluation                    ... done (   0.0 sec)
  promolecular density results
     # of electrons  =     45.989340218
     EX              =    -33.840241091
     EC              =     -1.486833341
     EX+EC           =    -35.327074431
Transforming the Hamiltonian                       ... done (   0.0 sec)
Diagonalizing the Hamiltonian                      ... done (   0.0 sec)
Back transforming the eigenvectors                 ... done (   0.0 sec)
Now organizing SCF variables                       ... done
                      ------------------
                      INITIAL GUESS DONE (   0.2 sec)
                      ------------------
             **** ENERGY FILE WAS UPDATED (orca.en.tmp) ****
Finished Guess after   0.3 sec
Maximum memory used throughout the entire GUESS-calculation: 8.7 MB


           ************************************************************
           *        Program running with 6 parallel MPI-processes     *
           *              working on a common directory               *
           ************************************************************

-------------------------------------------------------------------------------------------
                                      ORCA LEAN-SCF
                              memory conserving SCF solver
-------------------------------------------------------------------------------------------

----------------------------------------D-I-I-S--------------------------------------------
Iteration    Energy (Eh)           Delta-E    RMSDP     MaxDP     DIISErr   Damp  Time(sec)
-------------------------------------------------------------------------------------------
               ***  Starting incremental Fock matrix formation  ***
    1    -234.1194766556388061     0.00e+00  8.80e-03  6.80e-02  1.39e-01  0.700   0.9
    2    -234.2014936886679095    -8.20e-02  6.24e-03  4.29e-02  7.28e-02  0.700   0.6
                               ***Turning on AO-DIIS***
    3    -234.2340936454506561    -3.26e-02  2.66e-03  1.45e-02  2.78e-02  0.700   0.6
    4    -234.2531822183971997    -1.91e-02  5.12e-03  3.00e-02  1.33e-02  0.000   0.5
    5    -234.2951364032511208    -4.20e-02  8.20e-04  3.95e-03  5.21e-03  0.000   0.5
                              *** Initializing SOSCF ***
---------------------------------------S-O-S-C-F--------------------------------------
Iteration    Energy (Eh)           Delta-E    RMSDP     MaxDP     MaxGrad    Time(sec)
--------------------------------------------------------------------------------------
    6    -234.2954203138475293    -2.84e-04  3.06e-04  1.47e-03  1.33e-03     0.5
               *** Restarting incremental Fock matrix formation ***
    7    -234.2956559245922961    -2.36e-04  2.06e-04  1.01e-03  2.29e-04     0.9
    8    -234.2956566183456459    -6.94e-07  5.03e-05  4.61e-04  1.84e-04     0.7
    9    -234.2956576838700755    -1.07e-06  2.63e-05  1.28e-04  3.17e-05     0.6
   10    -234.2956577242583478    -4.04e-08  8.91e-06  4.00e-05  1.86e-05     0.7
   11    -234.2956577383777983    -1.41e-08  2.79e-06  1.83e-05  4.09e-06     0.6
   12    -234.2956577368100568     1.57e-09  1.48e-06  7.76e-06  3.94e-06     0.5
                 **** Energy Check signals convergence ****

               *****************************************************
               *                     SUCCESS                       *
               *           SCF CONVERGED AFTER  12 CYCLES          *
               *****************************************************

Recomputing exchange energy using gridx3       ... done (    1.383 sec)
Old exchange energy                            :     -6.925117673 Eh
New exchange energy                            :     -6.925160883 Eh
Exchange energy change after final integration :     -0.000043210 Eh
Total energy after final integration           :   -234.295700949 Eh
             **** ENERGY FILE WAS UPDATED (orca.en.tmp) ****

----------------
TOTAL SCF ENERGY
----------------

Total Energy       :       -234.29570094946513 Eh           -6375.51015 eV

Components:
Nuclear Repulsion  :        243.63296494069468 Eh            6629.59002 eV
Electronic Energy  :       -477.92862267989813 Eh          -13005.09899 eV
One Electron Energy:       -796.67618702488255 Eh          -21678.66117 eV
Two Electron Energy:        318.74756434498443 Eh            8673.56218 eV

Virial components:
Potential Energy   :       -465.74318799485673 Eh          -12673.51645 eV
Kinetic Energy     :        231.44748704539160 Eh            6298.00631 eV
Virial Ratio       :          2.01230609128850

DFT components:
N(Alpha)           :       22.999985379994 electrons
N(Beta)            :       22.999985379994 electrons
N(Total)           :       45.999970759988 electrons
E(X)               :      -27.427557986199 Eh       
E(C)               :       -1.760715259029 Eh       
E(XC)              :      -29.188273245228 Eh       

---------------
SCF CONVERGENCE
---------------

  Last Energy change         ...   -1.5677e-09  Tolerance :   1.0000e-08
  Last MAX-Density change    ...    7.7648e-06  Tolerance :   1.0000e-07
  Last RMS-Density change    ...    1.4802e-06  Tolerance :   5.0000e-09
  Last DIIS Error            ...    1.3314e-03  Tolerance :   5.0000e-07
  Last Orbital Gradient      ...    3.9396e-06  Tolerance :   1.0000e-05
  Last Orbital Rotation      ...    3.9824e-06  Tolerance :   1.0000e-05


----------------
ORBITAL ENERGIES
----------------

  NO   OCC          E(Eh)            E(eV) 
   0   2.0000     -10.181232      -277.0454 
   1   2.0000     -10.181078      -277.0412 
   2   2.0000     -10.178294      -276.9655 
   3   2.0000     -10.177477      -276.9432 
   4   2.0000     -10.177459      -276.9427 
   5   2.0000     -10.176778      -276.9242 
   6   2.0000      -0.867739       -23.6124 
   7   2.0000      -0.747986       -20.3537 
   8   2.0000      -0.692237       -18.8367 
   9   2.0000      -0.606786       -16.5115 
  10   2.0000      -0.542422       -14.7600 
  11   2.0000      -0.532030       -14.4773 
  12   2.0000      -0.502864       -13.6836 
  13   2.0000      -0.454444       -12.3661 
  14   2.0000      -0.430868       -11.7245 
  15   2.0000      -0.400490       -10.8979 
  16   2.0000      -0.389171       -10.5899 
  17   2.0000      -0.348740        -9.4897 
  18   2.0000      -0.335223        -9.1219 
  19   2.0000      -0.331068        -9.0088 
  20   2.0000      -0.324868        -8.8401 
  21   2.0000      -0.277625        -7.5546 
  22   2.0000      -0.265123        -7.2144 
  23   0.0000       0.057704         1.5702 
  24   0.0000       0.074809         2.0356 
  25   0.0000       0.101470         2.7611 
  26   0.0000       0.105802         2.8790 
  27   0.0000       0.118253         3.2178 
  28   0.0000       0.127252         3.4627 
  29   0.0000       0.142918         3.8890 
  30   0.0000       0.145412         3.9569 
  31   0.0000       0.152368         4.1461 
  32   0.0000       0.172931         4.7057 
  33   0.0000       0.179637         4.8882 
*Only the first 10 virtual orbitals were printed.

                    ********************************
                    * MULLIKEN POPULATION ANALYSIS *
                    ********************************

-----------------------
MULLIKEN ATOMIC CHARGES
-----------------------
   0 C :    0.134373
   1 C :   -0.131526
   2 C :   -0.131835
   3 C :    0.025749
   4 C :   -0.069292
   5 C :    0.134390
   6 H :    0.003828
   7 H :    0.000484
   8 H :   -0.003216
   9 H :    0.007563
  10 H :    0.001117
  11 H :   -0.003036
  12 H :    0.000603
  13 H :    0.013268
  14 H :    0.013834
  15 H :    0.003696
Sum of atomic charges:   -0.0000000

--------------------------------
MULLIKEN REDUCED ORBITAL CHARGES
--------------------------------
  0 C s       :     2.941341  s :     2.941341
      pz      :     0.970546  p :     2.888138
      px      :     0.951769
      py      :     0.965823
      dz2     :     0.006216  d :     0.036147
      dxz     :     0.008267
      dyz     :     0.006305
      dx2y2   :     0.006457
      dxy     :     0.008901

  1 C s       :     3.175891  s :     3.175891
      pz      :     1.000225  p :     2.910951
      px      :     0.922825
      py      :     0.987900
      dz2     :     0.006921  d :     0.044684
      dxz     :     0.010085
      dyz     :     0.008186
      dx2y2   :     0.008399
      dxy     :     0.011093

  2 C s       :     3.176194  s :     3.176194
      pz      :     1.025541  p :     2.910958
      px      :     0.980233
      py      :     0.905184
      dz2     :     0.006001  d :     0.044683
      dxz     :     0.007890
      dyz     :     0.010333
      dx2y2   :     0.009152
      dxy     :     0.011307

  3 C s       :     3.045333  s :     3.045333
      pz      :     0.906374  p :     2.892876
      px      :     0.992465
      py      :     0.994036
      dz2     :     0.009974  d :     0.036042
      dxz     :     0.007832
      dyz     :     0.007553
      dx2y2   :     0.004357
      dxy     :     0.006325

  4 C s       :     3.053124  s :     3.053124
      pz      :     1.007474  p :     2.980841
      px      :     0.988498
      py      :     0.984869
      dz2     :     0.010257  d :     0.035326
      dxz     :     0.004164
      dyz     :     0.005229
      dx2y2   :     0.006478
      dxy     :     0.009198

  5 C s       :     2.941392  s :     2.941392
      pz      :     0.970796  p :     2.888077
      px      :     0.962356
      py      :     0.954925
      dz2     :     0.005237  d :     0.036141
      dxz     :     0.005787
      dyz     :     0.010072
      dx2y2   :     0.006438
      dxy     :     0.008606

  6 H s       :     0.974163  s :     0.974163
      pz      :     0.009496  p :     0.022009
      px      :     0.002940
      py      :     0.009573

  7 H s       :     0.977456  s :     0.977456
      pz      :     0.007209  p :     0.022060
      px      :     0.007539
      py      :     0.007313

  8 H s       :     0.980969  s :     0.980969
      pz      :     0.011512  p :     0.022248
      px      :     0.006314
      py      :     0.004422

  9 H s       :     0.970140  s :     0.970140
      pz      :     0.013331  p :     0.022297
      px      :     0.004401
      py      :     0.004565

 10 H s       :     0.976862  s :     0.976862
      pz      :     0.004774  p :     0.022021
      px      :     0.008720
      py      :     0.008527

 11 H s       :     0.980794  s :     0.980794
      pz      :     0.010948  p :     0.022242
      px      :     0.004157
      py      :     0.007137

 12 H s       :     0.977342  s :     0.977342
      pz      :     0.008665  p :     0.022055
      px      :     0.006259
      py      :     0.007132

 13 H s       :     0.963702  s :     0.963702
      pz      :     0.003748  p :     0.023029
      px      :     0.009906
      py      :     0.009376

 14 H s       :     0.963266  s :     0.963266
      pz      :     0.012715  p :     0.022900
      px      :     0.005388
      py      :     0.004798

 15 H s       :     0.974290  s :     0.974290
      pz      :     0.008553  p :     0.022014
      px      :     0.010612
      py      :     0.002849



                     *******************************
                     * LOEWDIN POPULATION ANALYSIS *
                     *******************************

----------------------
LOEWDIN ATOMIC CHARGES
----------------------
   0 C :   -0.022864
   1 C :   -0.039041
   2 C :   -0.039034
   3 C :   -0.042012
   4 C :   -0.034322
   5 C :   -0.022890
   6 H :    0.017962
   7 H :    0.019207
   8 H :    0.021052
   9 H :    0.018456
  10 H :    0.021321
  11 H :    0.021092
  12 H :    0.019219
  13 H :    0.025568
  14 H :    0.018360
  15 H :    0.017927

-------------------------------
LOEWDIN REDUCED ORBITAL CHARGES
-------------------------------
  0 C s       :     2.842351  s :     2.842351
      pz      :     1.049227  p :     3.090856
      px      :     1.019307
      py      :     1.022322
      dz2     :     0.014389  d :     0.089657
      dxz     :     0.021082
      dyz     :     0.015943
      dx2y2   :     0.016529
      dxy     :     0.021715

  1 C s       :     2.834812  s :     2.834812
      pz      :     1.061887  p :     3.096345
      px      :     0.978046
      py      :     1.056412
      dz2     :     0.015619  d :     0.107884
      dxz     :     0.023765
      dyz     :     0.020505
      dx2y2   :     0.020493
      dxy     :     0.027501

  2 C s       :     2.834787  s :     2.834787
      pz      :     1.076936  p :     3.096356
      px      :     1.050228
      py      :     0.969192
      dz2     :     0.013052  d :     0.107890
      dxz     :     0.019525
      dyz     :     0.024063
      dx2y2   :     0.022223
      dxy     :     0.029027

  3 C s       :     2.827036  s :     2.827036
      pz      :     0.995683  p :     3.124273
      px      :     1.065760
      py      :     1.062829
      dz2     :     0.026870  d :     0.090703
      dxz     :     0.019387
      dyz     :     0.018180
      dx2y2   :     0.009845
      dxy     :     0.016422

  4 C s       :     2.847015  s :     2.847015
      pz      :     1.050606  p :     3.101852
      px      :     1.025047
      py      :     1.026199
      dz2     :     0.025507  d :     0.085455
      dxz     :     0.008875
      dyz     :     0.012344
      dx2y2   :     0.016916
      dxy     :     0.021813

  5 C s       :     2.842413  s :     2.842413
      pz      :     1.051834  p :     3.090836
      px      :     1.018637
      py      :     1.020364
      dz2     :     0.012243  d :     0.089642
      dxz     :     0.013870
      dyz     :     0.026032
      dx2y2   :     0.015991
      dxy     :     0.021505

  6 H s       :     0.913362  s :     0.913362
      pz      :     0.028309  p :     0.068676
      px      :     0.011685
      py      :     0.028681

  7 H s       :     0.916558  s :     0.916558
      pz      :     0.019947  p :     0.064235
      px      :     0.022305
      py      :     0.021983

  8 H s       :     0.914705  s :     0.914705
      pz      :     0.033133  p :     0.064243
      px      :     0.017760
      py      :     0.013350

  9 H s       :     0.915893  s :     0.915893
      pz      :     0.039021  p :     0.065651
      px      :     0.013054
      py      :     0.013575

 10 H s       :     0.913713  s :     0.913713
      pz      :     0.013288  p :     0.064965
      px      :     0.026153
      py      :     0.025524

 11 H s       :     0.914676  s :     0.914676
      pz      :     0.031239  p :     0.064232
      px      :     0.012830
      py      :     0.020163

 12 H s       :     0.916551  s :     0.916551
      pz      :     0.024135  p :     0.064230
      px      :     0.019160
      py      :     0.020935

 13 H s       :     0.906509  s :     0.906509
      pz      :     0.010869  p :     0.067923
      px      :     0.029249
      py      :     0.027805

 14 H s       :     0.912849  s :     0.912849
      pz      :     0.037156  p :     0.068791
      px      :     0.016605
      py      :     0.015030

 15 H s       :     0.913379  s :     0.913379
      pz      :     0.025899  p :     0.068694
      px      :     0.031415
      py      :     0.011380



                      *****************************
                      * MAYER POPULATION ANALYSIS *
                      *****************************

  NA   - Mulliken gross atomic population
  ZA   - Total nuclear charge
  QA   - Mulliken gross atomic charge
  VA   - Mayer's total valence
  BVA  - Mayer's bonded valence
  FA   - Mayer's free valence

  ATOM       NA         ZA         QA         VA         BVA        FA
  0 C      5.8656     6.0000     0.1344     4.0031     4.0031    -0.0000
  1 C      6.1315     6.0000    -0.1315     4.0317     4.0317    -0.0000
  2 C      6.1318     6.0000    -0.1318     4.0321     4.0321     0.0000
  3 C      5.9743     6.0000     0.0257     3.8933     3.8933    -0.0000
  4 C      6.0693     6.0000    -0.0693     4.1309     4.1309    -0.0000
  5 C      5.8656     6.0000     0.1344     4.0030     4.0030    -0.0000
  6 H      0.9962     1.0000     0.0038     0.9817     0.9817    -0.0000
  7 H      0.9995     1.0000     0.0005     0.9772     0.9772    -0.0000
  8 H      1.0032     1.0000    -0.0032     0.9749     0.9749    -0.0000
  9 H      0.9924     1.0000     0.0076     0.9754     0.9754     0.0000
 10 H      0.9989     1.0000     0.0011     0.9758     0.9758    -0.0000
 11 H      1.0030     1.0000    -0.0030     0.9748     0.9748    -0.0000
 12 H      0.9994     1.0000     0.0006     0.9772     0.9772     0.0000
 13 H      0.9867     1.0000     0.0133     0.9794     0.9794     0.0000
 14 H      0.9862     1.0000     0.0138     0.9874     0.9874     0.0000
 15 H      0.9963     1.0000     0.0037     0.9817     0.9817     0.0000

  Mayer bond orders larger than 0.100000
B(  0-C ,  1-C ) :   1.0631 B(  0-C ,  4-C ) :   1.0769 B(  0-C ,  7-H ) :   0.9413 
B(  0-C ,  8-H ) :   0.9357 B(  1-C ,  2-C ) :   0.9508 B(  1-C ,  3-C ) :   0.9896 
B(  1-C ,  6-H ) :   0.9535 B(  2-C ,  3-C ) :   0.9897 B(  2-C ,  5-C ) :   1.0632 
B(  2-C , 15-H ) :   0.9536 B(  3-C , 13-H ) :   0.9438 B(  3-C , 14-H ) :   0.9475 
B(  4-C ,  5-C ) :   1.0767 B(  4-C ,  9-H ) :   0.9413 B(  4-C , 10-H ) :   0.9437 
B(  5-C , 11-H ) :   0.9357 B(  5-C , 12-H ) :   0.9413 

-------
TIMINGS
-------

Total SCF time: 0 days 0 hours 0 min 9 sec 

Total time                  ....       9.766 sec
Sum of individual times     ....       9.186 sec  ( 94.1%)

SCF preparation             ....       0.178 sec  (  1.8%)
Fock matrix formation       ....       8.757 sec  ( 89.7%)
  Startup                   ....       0.005 sec  (  0.1% of F)
  Split-RI-J                ....       0.742 sec  (  8.5% of F)
  Chain of spheres X        ....       6.607 sec  ( 75.4% of F)
  XC integration            ....       1.804 sec  ( 20.6% of F)
    XC Preparation          ....       0.000 sec  (  0.0% of XC)
    Basis function eval.    ....       0.508 sec  ( 28.1% of XC)
    Density eval.           ....       0.307 sec  ( 17.0% of XC)
    XC-Functional eval.     ....       0.085 sec  (  4.7% of XC)
    XC-Potential eval.      ....       0.344 sec  ( 19.0% of XC)
Diagonalization             ....       0.000 sec  (  0.0%)
Density matrix formation    ....       0.030 sec  (  0.3%)
Total Energy calculation    ....       0.016 sec  (  0.2%)
Population analysis         ....       0.022 sec  (  0.2%)
Orbital Transformation      ....       0.019 sec  (  0.2%)
Orbital Orthonormalization  ....       0.000 sec  (  0.0%)
DIIS solution               ....       0.086 sec  (  0.9%)
SOSCF solution              ....       0.078 sec  (  0.8%)
Finished LeanSCF after   9.8 sec

Maximum memory used throughout the entire LEANSCF-calculation: 12.3 MB


-------------------------------------------------------------------------------
                          DFT DISPERSION CORRECTION                            
                                                                               
                              DFTD3 V3.1  Rev 1                                
                          USING Becke-Johnson damping                          
-------------------------------------------------------------------------------
The B3LYP functional is recognized
Active option DFTDOPT                   ...         4   

molecular C6(AA) [au] = 1861.134433 


            DFT-D V3
 parameters
 s6 scaling factor         :     1.0000 
 a1 scaling factor         :     0.3981 
 s8 scaling factor         :     1.9889 
 a2 scaling factor         :     4.4211 
 ad hoc parameters k1-k3   :    16.0000     1.3333    -4.0000 

 Edisp/kcal,au: -14.293251517900  -0.022777743738 
 E6   /kcal   :  -6.903754334 
 E8   /kcal   :  -7.389497184 
 % E8         :  51.699203466 

-------------------------   ----------------
Dispersion correction           -0.022777744
-------------------------   ----------------


-------------------------   --------------------
FINAL SINGLE POINT ENERGY      -234.318478693203
-------------------------   --------------------



           ************************************************************
           *        Program running with 6 parallel MPI-processes     *
           *              working on a common directory               *
           ************************************************************
------------------------------------------------------------------------------
                         ORCA SCF GRADIENT CALCULATION
------------------------------------------------------------------------------

Nuc. rep. gradient        (SHARK) ... done (  0.0 sec)
HCore & Overlap gradient  (SHARK) ... done (  0.0 sec)
Split-RIJ-J gradient      (SHARK) ... done (  0.3 sec)
done (  5.1 sec)
XC gradient                       ... done (  1.0 sec)
Dispersion correction             ... done (  0.1 sec)

-------------------
DISPERSION GRADIENT
-------------------

   1   C   :   -0.000432962    0.000134975   -0.000087104
   2   C   :    0.000041347    0.000349054   -0.000153922
   3   C   :    0.000365593    0.000008367   -0.000116228
   4   C   :    0.000394387    0.000392643    0.000156901
   5   C   :   -0.000307919   -0.000280764    0.000110326
   6   C   :    0.000119521   -0.000445439   -0.000022682
   7   H   :    0.000019413    0.000281552   -0.000209632
   8   H   :   -0.000347016    0.000165126    0.000019665
   9   H   :   -0.000321470    0.000085365   -0.000187295
  10   H   :   -0.000198370   -0.000158388    0.000272368
  11   H   :   -0.000244512   -0.000225627    0.000065069
  12   H   :    0.000087417   -0.000344318   -0.000139539
  13   H   :    0.000142520   -0.000349126    0.000076717
  14   H   :    0.000206462    0.000207215    0.000096622
  15   H   :    0.000172049    0.000196447    0.000295383
  16   H   :    0.000303541   -0.000017082   -0.000176649

Difference to translation invariance:
           :    0.0000000000    0.0000000000   -0.0000000000

Difference to rotation invariance:
           :    0.0000000000    0.0000000000   -0.0000000000

Norm of the Dispersion gradient    ...    0.0016061612
RMS gradient                       ...    0.0002318294
MAX gradient                       ...    0.0004454389

------------------
CARTESIAN GRADIENT
------------------

   1   C   :    0.000091629   -0.000099236    0.000052600
   2   C   :   -0.000095120   -0.000001103    0.000038057
   3   C   :   -0.000034204   -0.000069011   -0.000039853
   4   C   :    0.000033323   -0.000030996    0.000005327
   5   C   :   -0.000018265    0.000059638    0.000015482
   6   C   :   -0.000006600    0.000088291    0.000127029
   7   H   :    0.000094494    0.000101267   -0.000115327
   8   H   :   -0.000049675    0.000025318   -0.000000446
   9   H   :   -0.000016373    0.000003413    0.000015843
  10   H   :   -0.000093673    0.000009643   -0.000005355
  11   H   :   -0.000084727   -0.000145732   -0.000066591
  12   H   :   -0.000027283   -0.000012442   -0.000031109
  13   H   :    0.000040572   -0.000069102    0.000015868
  14   H   :    0.000108112    0.000092902    0.000004269
  15   H   :   -0.000023965    0.000046336    0.000062120
  16   H   :    0.000081755    0.000000813   -0.000077913

Difference to translation invariance:
           :    0.0000000000    0.0000000000    0.0000000000

Difference to rotation invariance:
           :   -0.0001994314   -0.0003089583   -0.0002393419

Norm of the Cartesian gradient     ...    0.0004419461
RMS gradient                       ...    0.0000637894
MAX gradient                       ...    0.0001457316

-------
TIMINGS
-------

Total SCF gradient time     ....        6.494 sec

Densities                   ....       0.000 sec  (  0.0%)
One electron gradient       ....       0.047 sec  (  0.7%)
RI-J Coulomb gradient       ....       0.269 sec  (  4.1%)
COSX gradient               ....       5.118 sec  ( 78.8%)
XC gradient                 ....       1.000 sec  ( 15.4%)

Maximum memory used throughout the entire SCFGRAD-calculation: 28.6 MB


           ************************************************************
           *        Program running with 6 parallel MPI-processes     *
           *              working on a common directory               *
           ************************************************************

------------------------------------------------------------------------------
                              ORCA PROPERTY CALCULATIONS
------------------------------------------------------------------------------

GBWName                                 ... orca.gbw
Number of atoms                         ...     16
Number of basis functions               ...    134
Max core memory                         ...   4096 MB

Electric properties:
Dipole moment                           ... YES
Quadrupole moment                       ...  NO
Static polarizability (Dipole/Dipole)   ...  NO
Static polarizability (Dipole/Quad.)    ...  NO
Static polarizability (Quad./Quad.)     ...  NO
Static polarizability (Velocity)        ...  NO
Static hyperpolarizability              ...  NO

Atomic electric properties:
Dipole moment                           ...  NO
Quadrupole moment                       ...  NO
Static polarizability                   ...  NO

Choice of electric origin               ... Center of mass
Position of electric origin             ...     0.035617     0.053158     0.009494

General magnetic properties:
Magnetizability                         ...  NO

EPR properties:
g-Tensor (aka g-matrix)                 ...  NO
Zero-Field splitting spin-orbit         ...  NO
Zero-field splitting spin-spin          ...  NO
Hyperfine couplings                     ...  NO (   0 nuclei)
Quadrupole couplings                    ...  NO (   0 nuclei)
Contact density                         ...  NO (   0 nuclei)

NMR properties:
Chemical shifts                         ...  NO (   0 nuclei)
Spin-rotation constants                 ...  NO (   0 nuclei)
Spin-spin couplings                     ...  NO (   0 nuclei,    0 pairs)

Choice of magnetic origin               ... GIAO
Position of magnetic origin             ...     0.000000     0.000000     0.000000

Properties with geometric perturbations:
SCF Hessian                             ...  NO
IR spectrum                             ...  NO
VCD spectrum                            ...  NO
X-ray spectroscopy properties:
SCF XES/XAS/RIXS spectra                ...  NO

SCF SOC stabilization energy            ...  NO
Diagonal Born-Oppenheimer correction    ...  NO

-------------
DIPOLE MOMENT
-------------

Method             : SCF
Type of density    : Electron Density
Multiplicity       :   1
Irrep              :   0
Energy             :  -234.2957009494651288 Eh
Basis              : AO
                                X                 Y                 Z
Electronic contribution:      0.913582958       0.797969820      -0.648241290
Nuclear contribution   :     -0.944216138      -0.833213749       0.593122714
                        -----------------------------------------
Total Dipole Moment    :     -0.030633180      -0.035243930      -0.055118576
                        -----------------------------------------
Magnitude (a.u.)       :      0.072239765
Magnitude (Debye)      :      0.183618891



--------------------
Rotational spectrum 
--------------------
 
Rotational constants in cm-1:             0.184776             0.140306             0.103423 
Rotational constants in MHz :          5539.448440          4206.279496          3100.546432 

Dipole components along the rotational axes: 
x,y,z [a.u.] :    -0.044110     0.000013    -0.057209 
x,y,z [Debye]:    -0.112118     0.000034    -0.145415 

 

Dipole moment calculation done in   0.0 sec 

Maximum memory used throughout the entire PROP-calculation: 6.8 MB

--------------------------------
SUGGESTED CITATIONS FOR THIS RUN
--------------------------------

Below you find a list of papers that are relevant to this ORCA run
We neither can nor want to force you to cite these papers, but we appreciate if you do
You receive ORCA, which is the product of decades of hard work by many enthusiastic individuals, for free
The only thing we kindly ask in return is that you cite our papers,
We deeply appreciate it, if you show your appreciation for ORCA by not just citing the generic ORCA reference.

Please note that relegating all ORCA citations to the supporting information does *not* help us.
SI sections are not indexed - citations you put there will not count into any citation statistics
But we need these citations in order to attract the funding resources that allow us to do what we are doing

Therefore, if you are a happy ORCA user, please consider citing a few of the papers listed below in the main body of your paper

In addition to the list printed below, the program has created the file orca.bibtex that contains the list in bibtex format
You can import this file easily into all common literature databanks and citation aid programs


List of essential papers. We consider these as the minimum necessary citations

  1. Neese, F.
     Software update: the ORCA program system, version 6.0
     WIRES Comput. Molec. Sci. 2025 15(1), e70019
     doi.org/10.1002/wcms.7019

List of papers to cite with high priority. The work reported in these papers was absolutely
necessary for this run to complete.
Our perspective: the developers of density functionals and basis sets usually get cited in chemistry papers
Good! But without the algorithms to do something with them, the functionals or basis sets would not do anything.
Hence, in our opinion, the algorithm design and method developments papers are equally worthy of getting cited

  1. Neese, F.
     An improvement of the resolution of the identity approximation for the formation of the Coulomb matrix
     J. Comp. Chem. 2003 24(14), 1740-1747
     doi.org/10.1002/jcc.10318
  2. Neese, F.; Wennmohs, F.; Hansen, A.; Becker, U.
     Efficient, approximate and parallel Hartree-Fock and hybrid DFT calculations. A 'chain-of-spheres' algorithm for the Hartree-Fock exchange
     Chem. Phys. 2009 356(1-3), 98-109
     doi.org/10.1016/j.chemphys.2008.10.036
  3. Grimme, S.; Antony, J.; Ehrlich, S.; Krieg, H.
     A consistent and accurate ab initio parametrization of density functional dispersion correction (DFT-D) for the 94 elements H-Pu
     J. Chem. Phys. 2010 132 , 154104
     doi.org/10.1063/1.3382344
  4. Grimme, S.; Ehrlich, S.; Goerigk, L.
     Effect of the damping function in dispersion corrected density functional theory
     J. Comput. Chem. 2011 32(7), 1456-1465
     doi.org/10.1002/jcc.21759
  5. Helmich-Paris, B.; de Souza, B.; Neese, F.; Izsák, R.
     An improved chain of spheres for exchange algorithm
     J. Chem. Phys. 2021 155(10), 104109
     doi.org/10.1063/5.0058766
  6. Neese, F.
     The SHARK Integral Generation and Digestion System
     J. Comp. Chem. 2022 44(3), 381
     doi.org/10.1002/jcc.26942

List of suggested additional citations. These are papers that are important in the 'surrounding' of 
of this run, or papers that preceded the highly important papers. If you like your results we are grateful for a citation.

  1. Izsak, R.; Neese, F.
     An overlap fitted chain of spheres exchange method
     J. Chem. Phys. 2011 135 , 144105
     doi.org/10.1063/1.3646921
  2. Izsak, R.; Hansen, A.; Neese, F.
     The resolution of identity and chain of spheres approximations for the LPNO-CCSD singles Fock term
     Molec. Phys. 2012 110 , 2413-2417
     doi.org/10.1080/00268976.2012.687466
  3. Neese, F.
     The ORCA program system
     WIRES Comput. Molec. Sci. 2012 2(1), 73-78
     doi.org/10.1002/wcms.81
  4. Izsak, R.; Neese, F.; Klopper, W.
     Robust fitting techniques in the chain of spheres approximation to the Fock exchange: The role of the complementary space
     J. Chem. Phys. 2013 139 , 
     doi.org/10.1063/1.4819264
  5. Neese, F.
     Software update: the ORCA program system, version 4.0
     WIRES Comput. Molec. Sci. 2018 8(1), 1-6
     doi.org/10.1002/wcms.1327
  6. Neese, F.; Wennmohs, F.; Becker, U.; Riplinger, C.
     The ORCA quantum chemistry program package
     J. Chem. Phys. 2020 152(22), 224108
     doi.org/10.1063/5.0004608
  7. Neese, F.
     Software update: The ORCA program system—Version 5.0
     WIRES Comput. Molec. Sci. 2022 12(1), e1606
     doi.org/10.1002/wcms.1606

List of optional additional citations

  1. Neese, F.
     Approximate second-order SCF convergence for spin unrestricted wavefunctions
     Chem. Phys. Lett. 2000 325(1-3), 93-98
     doi.org/10.1016/s0009-2614(00)00662-x

Timings for individual modules:

Sum of individual times          ...       19.646 sec (=   0.327 min)
Startup calculation              ...        1.431 sec (=   0.024 min)   7.3 %
SCF iterations                   ...       10.827 sec (=   0.180 min)  55.1 %
Property calculations            ...        0.447 sec (=   0.007 min)   2.3 %
SCF Gradient evaluation          ...        6.941 sec (=   0.116 min)  35.3 %
                             ****ORCA TERMINATED NORMALLY****
TOTAL RUN TIME: 0 days 0 hours 0 minutes 20 seconds 230 msec
