
                                 *****************
                                 * O   R   C   A *
                                 *****************

                                            #,                                       
                                            ###                                      
                                            ####                                     
                                            #####                                    
                                            ######                                   
                                           ########,                                 
                                     ,,################,,,,,                         
                               ,,#################################,,                 
                          ,,##########################################,,             
                       ,#########################################, ''#####,          
                    ,#############################################,,   '####,        
                  ,##################################################,,,,####,       
                ,###########''''           ''''###############################       
              ,#####''   ,,,,##########,,,,          '''####'''          '####       
            ,##' ,,,,###########################,,,                        '##       
           ' ,,###''''                  '''############,,,                           
         ,,##''                                '''############,,,,        ,,,,,,###''
      ,#''                                            '''#######################'''  
     '                                                          ''''####''''         
             ,#######,   #######,   ,#######,      ##                                
            ,#'     '#,  ##    ##  ,#'     '#,    #''#        ,####,    ,#,          
            ##       ##  ##   ,#'  ##            #'  '#       #'       ,# #          
            ##       ##  #######   ##           ,######,      #####,      #          
            '#,     ,#'  ##    ##  '#,     ,#' ,#      #,     #,   #      #          
             '#######'   ##     ##  '#######'  #'      '#     '####' #    #          



                #########################################################
                #                        -***-                          #
                #          Department of theory and spectroscopy        #
                #                                                       #
                #                      Frank Neese                      #
                #                                                       #
                #     Directorship, Architecture, Infrastructure        #
                #                    SHARK, DRIVERS                     #
                #        Core code/Algorithms in most modules           #
                #                                                       #
                #        Max Planck Institute fuer Kohlenforschung      #
                #                Kaiser Wilhelm Platz 1                 #
                #                 D-45470 Muelheim/Ruhr                 #
                #                      Germany                          #
                #                                                       #
                #                  All rights reserved                  #
                #                        -***-                          #
                #########################################################


                         Program Version 6.1.0  -  RELEASE   -
                                (GIT: $679e74b$)
                          ($2025-06-10 18:02:51 +0200$)


 With contributions from (in alphabetic order):
[Max-Planck-Institut fuer Kohlenforschung]                               
  Daniel Aravena         : Magnetic Suceptibility                        
  Michael Atanasov       : Ab Initio Ligand Field Theory (pilot matlab implementation)
  Alexander A. Auer      : GIAO ZORA, VPT2 properties, NMR spectrum      
  Ute Becker             : All parallelization in ORCA, NUMFREQ, NUMCALC 
  Giovanni Bistoni       : ED, misc. LED, open-shell LED, HFLD           
  Dmytro Bykov           : pre 5.0 version of the SCF Hessian            
  Marcos Casanova-Páez   : Triplet and SCS-CIS(D). UHF-(DLPNO)-IP/EA/STEOM-CCSD. UHF-CVS-IP/STEOM-CCSD   
  Vijay G. Chilkuri      : MRCI spin determinant printing, contributions to CSF-ICE 
  Pauline Colinet        : FMM embedding                                 
  Dipayan Datta          : RHF DLPNO-CCSD density                        
  Achintya Kumar Dutta   : EOM-CC, STEOM-CC                              
  Nicolas Foglia         : Exact transition moments, OPA infrastructure, MCD improvements    
  Dmitry Ganyushin       : Spin-Orbit,Spin-Spin,Magnetic field MRCI      
  Miquel Garcia-Rates    : C-PCM and meta-GGA Hessian, CCSD/C-PCM, Gaussian charge scheme 
  Tiago L. C. Gouveia    : GS-ROHF, GS-ROCIS                             
  Yang Guo               : DLPNO-NEVPT2, F12-NEVPT2, CIM, IAO-localization        
  Andreas Hansen         : Spin unrestricted coupled pair/coupled cluster methods 
  Ingolf Harden          : AUTO-CI MPn and infrastructure                
  Benjamin Helmich-Paris : MC-RPA, TRAH-(SCF,CASSCF), AVAS, COSX integrals, SCF dyn. polar., MC-PDFT, srDFT 
  Lee Huntington         : MR-EOM, pCC                                   
  Robert Izsak           : Overlap fitted RIJCOSX, COSX-SCS-MP3, EOM     
  Riya Kayal             : Wick's Theorem for AUTO-CI, AUTO-CI UHF-CCSDT 
  Emily Kempfer          : AUTO-CI RHF CISDT and CCSDT, approximate NEVPT4
  Christian Kollmar      : KDIIS, OOCD, Brueckner-CCSD(T), CCSD density, CASPT2, CASPT2-K, improved NEVPT2 
  Axel Koslowski         : Symmetry handling                             
  Simone Kossmann        : meta-GGA functionals, TD-DFT gradient, OOMP2, (MP2 Hessian; deprecated post 5.0) 
  Lucas Lang             : DCDCAS, Hyperfine gauge corrections, ICE-SOC+SSC
  Marvin Lechner         : AUTO-CI (C++ implementation), FIC-MRCC        
  Spencer Leger          : CASSCF response                               
  Dagmar Lenk            : GEPOL surface, SMD, ORCA-2-JSON               
  Dimitrios Liakos       : Extrapolation schemes; Compound Job, Property file
  Dimitrios Manganas     : Further ROCIS development; embedding schemes. LFT, Crystal Embedding 
  Dimitrios Pantazis     : SARC Basis sets                               
  Anastasios Papadopoulos: AUTO-CI, single reference methods and gradients 
  Taras Petrenko         : pre 6.0 DFT Hessian and TD-DFT gradient,  ECA, NRVS 
  Petra Pikulova         : Analytic Raman intensities                    
  Peter Pinski           : DLPNO-MP2, DLPNO-MP2 Gradient                 
  Shashank Vittal Rao    : ES-AILFT, MagRelax                            
  Christoph Reimann      : Effective Core Potentials                     
  Marius Retegan         : Local ZFS, SOC                                
  Christoph Riplinger    : Optimizer, TS searches, QM/MM, DLPNO-CCSD(T), (RO)-DLPNO pert. Triples 
  Michael Roemelt        : Original ROCIS implementation, recursive CI coupling coefficients
  Masaaki Saitow         : Open-shell DLPNO-CCSD energy and density      
  Barbara Sandhoefer     : DKH picture change effects                    
  Yorick L. A. Schmerwitz: GMF and freeze-and-release deltaSCF, NEB S-IDPP initial path                    
  Kantharuban Sivalingam : CASSCF convergence/infrastructure, NEVPT2, NEVPT3, NEVPT4(SD), FIC-MRCI and CEPA variants
  Bernardo de Souza      : ESD, SOC TD-DFT                               
  Georgi L. Stoychev     : AutoAux, RI-MP2 NMR, DLPNO-MP2 response, X2C  
  Van Anh Tran           : RI-MP2 g-tensors                              
  Willem Van den Heuvel  : Paramagnetic NMR                              
  Zikuan Wang            : NOTCH, Electric field optimization            
  Frank Wennmohs         : Technical directorship and infrastructure     
  Hang Xu                : AUTO-CI-Response properties                   
                                                                         
[FACCTs GmbH]                                                            
  Markus Bursch, Nicolas Foglia, Miquel Garcia-Rates, Ingolf Harden, Hagen Neugebauer, Anastasios Papadopoulos, 
  Christoph Riplinger, Bernardo de Souza, Georgi L. Stoychev                                                    
                                                                 
  APM, various basis sets, CI-OPT, improved COSX, DLPNO-Multilevel,           
  DOCKER, DRACO, updates on ESD, Fragmentator, GOAT, IRC, LR-CPCM, L-BFGS, MBIS, meta-GGA TD-DFT gradient, ML-optimized integration grids, 
  MM, NACMEs, nearIR, NEB, NEB-TS, NL-DFT gradient (VV10), 2- and 3-layer-ONIOM, interface openCOSMO-RS, QMMM,   
  Crystal-QMMM, RESP, rigid body optimization, SF, symmetry and pop. for TD-DFT, various functionals, SOLVATOR                                   
                                                                         
[Other institutions]                                                     
  V. Asgeirsson          : NEB                                           
  Christoph Bannwarth    : sTDA-DFT, sTD-DFT, PBEh-3c, B97-3c, D3        
  Giovanni Bistoni       : ETS/NOCV, ADLD/ADEX, COVALED                  
  Martin Brehm           : Molecular dynamics                            
  Ronald Cardenas        : ETS/NOCV                                      
  Martina Colucci        : COVALED                                       
  Sebastian Ehlert       : rSCAN, r2SCAN, r2SCAN-3c, D4, dhf basis sets  
  Marvin Friede          : D4 for Fr, Ra, Ac-Lr                          
  Lars Goerigk           : TD-DFT with DH, B97 family of functionals     
  Stefan Grimme          : VdW corrections, initial TS optimization, DFT functionals, gCP, sTDA/sTD-DF 
  Waldemar Hujo          : DFT-NL                                        
  H. Jonsson             : NEB                                           
  Holger Kruse           : gCP                                           
  Marcel Mueller         : wB97X-3c, vDZP basis set                      
  Hagen Neugebauer       : wr2SCAN, Native XTB                           
  Gianluca Regni         : ADLD/ADEX                                     
  Tobias Risthaus        : pre 6.0 range-separated hybrid DFT and stability analysis
  Lukas Wittmann         : regularized MP2, r2SCAN double-hybrids, wr2SCAN        
                                                                         
We gratefully acknowledge several colleagues who have allowed us to      
interface, adapt or use parts of their codes:                            
  Ed Valeev, F. Pavosevic, A. Kumar             : LibInt (2-el integral package), F12 methods 
  Garnet Chan, S. Sharma, J. Yang, R. Olivares  : DMRG                   
  Ulf Ekstrom                                   : XCFun DFT Library      
  Mihaly Kallay                                 : mrcc  (arbitrary order and MRCC methods)
  Frank Weinhold                                : gennbo (NPA and NBO analysis)           
  Simon Mueller                                 : openCOSMO-RS                            
  Christopher J. Cramer and Donald G. Truhlar   : smd solvation model                     
  S Lehtola, MJT Oliveira, MAL Marques          : LibXC Library                           
  Liviu Ungur et al                             : ANISO software                          


 Your calculation uses the libint2 library for the computation of 2-el integrals
 For citations please refer to: http://libint.valeyev.net

 Your ORCA version has been built with support for libXC version: 7.0.0
 For citations please refer to: https://libxc.gitlab.io

 This ORCA versions uses:
   CBLAS   interface :  Fast vector & matrix operations
   LAPACKE interface :  Fast linear algebra routines
   SCALAPACK package :  Parallel linear algebra routines
   Shared memory     :  Shared parallel matrices
   BLAS/LAPACK       :  OpenBLAS 0.3.29  USE64BITINT DYNAMIC_ARCH NO_AFFINITY Zen SINGLE_THREADED
        Core in use  :  Zen
   Copyright (c) 2011-2014, The OpenBLAS Project


  ***********************************
  * Starting time: Wed Sep 10 13:38:56 2025
  * Host name:     wyk-Server
  * Process ID:    2311787
  * Working dir.:  /home/wyk/Documents/code/openQDC/MGMR/singlepointcalc/103/sp
  ***********************************

Your calculation utilizes the atom-pairwise dispersion correction
with the Becke-Johnson damping scheme (D3BJ)


Warning: RI is on but no J-basis has been assigned. Assigning Def2/J (nothing to worry about!)
================================================================================

----- Orbital basis set information -----
Your calculation utilizes the basis: def2-SVP
   F. Weigend and R. Ahlrichs, Phys. Chem. Chem. Phys. 7, 3297 (2005).

----- AuxJ basis set information -----
Your calculation utilizes the auxiliary basis: def2/J
   H-Rn: F. Weigend, Phys. Chem. Chem. Phys. 8, 1057 (2006).
   Fr-Lr: K. Eichkorn, F. Weigend, O. Treutler, R. Ahlrichs; Theor. Chem. Acc. 97, 119 (1997).

================================================================================
                                        WARNINGS
                       Please study these warnings very carefully!
================================================================================


================================================================================
                                       INPUT FILE
================================================================================
NAME = orca.inp
|  1> ! B3LYP def2-SVP d3 EnGrad 
|  2> %pal nprocs 6 end 
|  3> *xyz 0 1 
|  4> C   -1.0127892092921 1.0636900312237 -0.6391320124702
|  5> C   -1.37715220886746 -0.27250438589238 -0.42522016236649
|  6> H   -1.02491254781517 1.75384517561302 0.20960616471742
|  7> H   -1.25348677482987 1.53507222563429 -1.59764215019202
|  8> C   -1.05339930702211 -0.92812863866449 0.77023099778184
|  9> H   -1.5893818950056 -0.89126337472273 -1.30600670789163
| 10> C   1.01279549862121 -1.06368223071141 0.63914306747804
| 11> H   -1.32490213201356 -1.98174623148008 0.89081807087646
| 12> H   -1.06753517221954 -0.35624667419552 1.70267987427982
| 13> C   1.37714894735454 0.27251175202754 0.42521963753594
| 14> H   1.02494563315216 -1.7538501249689 -0.20958426124707
| 15> H   1.25347663034391 -1.53504722923863 1.59766715692013
| 16> C   1.05340231461384 0.92811561601584 -0.7702447463223
| 17> H   1.58934947867482 0.89128674721266 1.30600116617694
| 18> H   1.06753679469836 0.35621506267096 -1.70268266377669
| 19> H   1.32490394960657 1.98173227947613 -0.89085343150022
| 20> *
| 21> 
| 22>                          ****END OF INPUT****
================================================================================

                     *******************************
                     * Energy+Gradient Calculation *
                     *******************************

---------------------------------
CARTESIAN COORDINATES (ANGSTROEM)
---------------------------------
  C     -1.012789    1.063690   -0.639132
  C     -1.377152   -0.272504   -0.425220
  H     -1.024913    1.753845    0.209606
  H     -1.253487    1.535072   -1.597642
  C     -1.053399   -0.928129    0.770231
  H     -1.589382   -0.891263   -1.306007
  C      1.012795   -1.063682    0.639143
  H     -1.324902   -1.981746    0.890818
  H     -1.067535   -0.356247    1.702680
  C      1.377149    0.272512    0.425220
  H      1.024946   -1.753850   -0.209584
  H      1.253477   -1.535047    1.597667
  C      1.053402    0.928116   -0.770245
  H      1.589349    0.891287    1.306001
  H      1.067537    0.356215   -1.702683
  H      1.324904    1.981732   -0.890853

----------------------------
CARTESIAN COORDINATES (A.U.)
----------------------------
  NO LB      ZA    FRAG     MASS         X           Y           Z
   0 C     6.0000    0    12.011   -1.913894    2.010083   -1.207784
   1 C     6.0000    0    12.011   -2.602441   -0.514959   -0.803550
   2 H     1.0000    0     1.008   -1.936804    3.314287    0.396098
   3 H     1.0000    0     1.008   -2.368747    2.900866   -3.019106
   4 C     6.0000    0    12.011   -1.990636   -1.753909    1.455526
   5 H     1.0000    0     1.008   -3.003497   -1.684244   -2.467995
   6 C     6.0000    0    12.011    1.913906   -2.010068    1.207805
   7 H     1.0000    0     1.008   -2.503702   -3.744958    1.683402
   8 H     1.0000    0     1.008   -2.017349   -0.673209    3.217599
   9 C     6.0000    0    12.011    2.602434    0.514973    0.803549
  10 H     1.0000    0     1.008    1.936867   -3.314296   -0.396057
  11 H     1.0000    0     1.008    2.368728   -2.900819    3.019153
  12 C     6.0000    0    12.011    1.990642    1.753884   -1.455552
  13 H     1.0000    0     1.008    3.003435    1.684288    2.467985
  14 H     1.0000    0     1.008    2.017352    0.673149   -3.217604
  15 H     1.0000    0     1.008    2.503706    3.744931   -1.683469

--------------------------------
INTERNAL COORDINATES (ANGSTROEM)
--------------------------------
 C      0   0   0     0.000000000000     0.00000000     0.00000000
 C      1   0   0     1.401404365416     0.00000000     0.00000000
 H      1   2   0     1.093991586841   118.69857486     0.00000000
 H      1   2   3     1.094932954741   119.14014899   213.48806094
 C      2   1   3     1.401343133774   121.07976008   324.55492193
 H      2   1   3     1.097127642854   117.74195271   165.90398453
 C      5   2   1     2.074781867247   101.93151455   291.93359152
 H      5   2   1     1.094698615175   119.14152958   181.97132343
 H      5   2   1     1.093942279671   118.65755956    35.40632598
 C      7   5   2     1.401403235686   101.90365628    54.28325571
 H      7   5   2     1.093991511191    95.81370745   293.30213771
 H      7   5   2     1.094934152835   101.05314159   177.52910249
 C     10   7   5     1.401343427487   121.07959400   291.94721595
 H     10   7   5     1.097127003293   117.74196691    90.59733123
 H     13  10   7     1.093942638510   118.65751033   324.59475042
 H     13  10   7     1.094699806461   119.14180572   178.02934463

---------------------------
INTERNAL COORDINATES (A.U.)
---------------------------
 C      0   0   0     0.000000000000     0.00000000     0.00000000
 C      1   0   0     2.648270453518     0.00000000     0.00000000
 H      1   2   0     2.067344491944   118.69857486     0.00000000
 H      1   2   3     2.069123419466   119.14014899   213.48806094
 C      2   1   3     2.648154742484   121.07976008   324.55492193
 H      2   1   3     2.073270778949   117.74195271   165.90398453
 C      5   2   1     3.920769516722   101.93151455   291.93359152
 H      5   2   1     2.068680581864   119.14152958   181.97132343
 H      5   2   1     2.067251314896   118.65755956    35.40632598
 C      7   5   2     2.648268318637   101.90365628    54.28325571
 H      7   5   2     2.067344348985    95.81370745   293.30213771
 H      7   5   2     2.069125683535   101.05314159   177.52910249
 C     10   7   5     2.648155297521   121.07959400   291.94721595
 H     10   7   5     2.073269570353   117.74196691    90.59733123
 H     13  10   7     2.067251993003   118.65751033   324.59475042
 H     13  10   7     2.068682833067   119.14180572   178.02934463

---------------------
BASIS SET INFORMATION
---------------------
There are 2 groups of distinct atoms

 Group   1 Type C   : 7s4p1d contracted to 3s2p1d pattern {511/31/1}
 Group   2 Type H   : 4s1p contracted to 2s1p pattern {31/1}

Atom   0C    basis set group =>   1
Atom   1C    basis set group =>   1
Atom   2H    basis set group =>   2
Atom   3H    basis set group =>   2
Atom   4C    basis set group =>   1
Atom   5H    basis set group =>   2
Atom   6C    basis set group =>   1
Atom   7H    basis set group =>   2
Atom   8H    basis set group =>   2
Atom   9C    basis set group =>   1
Atom  10H    basis set group =>   2
Atom  11H    basis set group =>   2
Atom  12C    basis set group =>   1
Atom  13H    basis set group =>   2
Atom  14H    basis set group =>   2
Atom  15H    basis set group =>   2
---------------------------------
AUXILIARY/J BASIS SET INFORMATION
---------------------------------
There are 2 groups of distinct atoms

 Group   1 Type C   : 12s5p4d2f1g contracted to 6s4p3d1f1g pattern {711111/2111/211/2/1}
 Group   2 Type H   : 5s2p1d contracted to 3s1p1d pattern {311/2/1}

Atom   0C    basis set group =>   1
Atom   1C    basis set group =>   1
Atom   2H    basis set group =>   2
Atom   3H    basis set group =>   2
Atom   4C    basis set group =>   1
Atom   5H    basis set group =>   2
Atom   6C    basis set group =>   1
Atom   7H    basis set group =>   2
Atom   8H    basis set group =>   2
Atom   9C    basis set group =>   1
Atom  10H    basis set group =>   2
Atom  11H    basis set group =>   2
Atom  12C    basis set group =>   1
Atom  13H    basis set group =>   2
Atom  14H    basis set group =>   2
Atom  15H    basis set group =>   2


           ************************************************************
           *        Program running with 6 parallel MPI-processes     *
           *              working on a common directory               *
           ************************************************************
------------------------------------------------------------------------------
                             ORCA STARTUP CALCULATIONS
                           -- RI-GTO INTEGRALS CHOSEN --
------------------------------------------------------------------------------
------------------------------------------------------------------------------
                   ___                                                        
                  /   \      - P O W E R E D   B Y -                         
                 /     \                                                     
                 |  |  |   _    _      __       _____    __    __             
                 |  |  |  | |  | |    /  \     |  _  \  |  |  /  |          
                  \  \/   | |  | |   /    \    | | | |  |  | /  /          
                 / \  \   | |__| |  /  /\  \   | |_| |  |  |/  /          
                |  |  |   |  __  | /  /__\  \  |    /   |      \           
                |  |  |   | |  | | |   __   |  |    \   |  |\   \          
                \     /   | |  | | |  |  |  |  | |\  \  |  | \   \       
                 \___/    |_|  |_| |__|  |__|  |_| \__\ |__|  \__/        
                                                                              
                      - O R C A' S   B I G   F R I E N D -                    
                                      &                                       
                       - I N T E G R A L  F E E D E R -                       
                                                                              
 v1 FN, 2020, v2 2021, v3 2022-2024                                           
------------------------------------------------------------------------------


----------------------
SHARK INTEGRAL PACKAGE
----------------------

Number of atoms                             ...     16
Number of basis functions                   ...    134
Number of shells                            ...     66
Maximum angular momentum                    ...      2
Integral batch strategy                     ... SHARK/LIBINT Hybrid
RI-J (if used) integral strategy            ... SPLIT-RIJ (Revised 2003 algorithm where possible)
Printlevel                                  ...      1
Contraction scheme used                     ... SEGMENTED contraction
Prescreening option                         ... SCHWARTZ
   Thresh                                   ... 2.500e-11
   Tcut                                     ... 2.500e-12
   Tpresel                                  ... 2.500e-12 
Coulomb Range Separation                    ... NOT USED
Exchange Range Separation                   ... NOT USED
Multipole approximations                    ... NOT USED
Finite Nucleus Model                        ... NOT USED
CABS basis                                  ... NOT available
Auxiliary Coulomb fitting basis             ... AVAILABLE
   # of basis functions in Aux-J            ...    404
   # of shells in Aux-J                     ...    140
   Maximum angular momentum in Aux-J        ...      4
Auxiliary J/K fitting basis                 ... NOT available
Auxiliary Correlation fitting basis         ... NOT available
Auxiliary 'external' fitting basis          ... NOT available

Checking pre-screening integrals            ... done (  0.0 sec) Dimension = 66
   => SHARK Basis and OBASIS are compatible. Storing Pre-screening
Shell pair information
Shell pair cut-off parameter TPreSel        ...   2.5e-12
Total number of shell pairs                 ...      2211
Shell pairs after pre-screening             ...      2184
Total number of primitive shell pairs       ...      7611
Primitive shell pairs kept                  ...      5932
          la=0 lb=0:    730 shell pairs
          la=1 lb=0:    822 shell pairs
          la=1 lb=1:    251 shell pairs
          la=2 lb=0:    228 shell pairs
          la=2 lb=1:    132 shell pairs
          la=2 lb=2:     21 shell pairs

Checking whether 4 symmetric matrices of dimension 134 fit in memory
:Max Core in MB      =   4096.00
 MB in use           =      6.12
 MB left             =   4089.88
 MB needed           =      0.28
 Data fit in memory  = YES
Calculating RI/J V-Matrix + Cholesky decomp.... done (  0.0 sec)
Calculating Nuclear repulsion               ... done (  0.0 sec) ENN=    228.102945292863 Eh

Diagonalization of the overlap matrix:
Smallest eigenvalue                        ... 1.682e-03
Time for diagonalization                   ...    0.003 sec
Threshold for overlap eigenvalues          ... 1.000e-07
Number of eigenvalues below threshold      ... 0
Time for construction of square roots      ...    0.001 sec
Total time needed                          ...    0.005 sec

-------------------
DFT GRID GENERATION
-------------------

General Integration Accuracy     IntAcc      ... 4.388
Radial Grid Type                 RadialGrid  ... OptM3 with GC (2021)
Angular Grid (max. ang.)         AngularGrid ... 4 (Lebedev-302)
Angular grid pruning method      GridPruning ... 4 (adaptive)
Weight generation scheme         WeightScheme... mBecke (2022)
Basis function cutoff            BFCut       ... 1.0000e-11
Integration weight cutoff        WCut        ... 1.0000e-14
Partially contracted basis set               ... off
Rotationally invariant grid construction     ... off
Angular grids for H and He will be reduced by one unit

Total number of grid points                  ...    68191
Total number of batches                      ...     1072
Average number of points per batch           ...       63
Average number of grid points per atom       ...     4262

--------------------
COSX GRID GENERATION
--------------------

GRIDX 1
-------
General Integration Accuracy     IntAcc      ... 3.816
Radial Grid Type                 RadialGrid  ... OptM3 with GC (2021)
Angular Grid (max. ang.)         AngularGrid ... 1 (Lebedev-50)
Angular grid pruning method      GridPruning ... 4 (adaptive)
Weight generation scheme         WeightScheme... mBecke (2022)
Basis function cutoff            BFCut       ... 1.0000e-11
Integration weight cutoff        WCut        ... 1.0000e-14
Partially contracted basis set               ... on
Rotationally invariant grid construction     ... off
Angular grids for H and He will be reduced by one unit

Total number of grid points                  ...     8754
Total number of batches                      ...       80
Average number of points per batch           ...      109
Average number of grid points per atom       ...      547
UseSFitting                                  ... on

GRIDX 2
-------
General Integration Accuracy     IntAcc      ... 4.020
Radial Grid Type                 RadialGrid  ... OptM3 with GC (2021)
Angular Grid (max. ang.)         AngularGrid ... 2 (Lebedev-110)
Angular grid pruning method      GridPruning ... 4 (adaptive)
Weight generation scheme         WeightScheme... mBecke (2022)
Basis function cutoff            BFCut       ... 1.0000e-11
Integration weight cutoff        WCut        ... 1.0000e-14
Partially contracted basis set               ... on
Rotationally invariant grid construction     ... off
Angular grids for H and He will be reduced by one unit

Total number of grid points                  ...    18370
Total number of batches                      ...      150
Average number of points per batch           ...      122
Average number of grid points per atom       ...     1148
UseSFitting                                  ... on

GRIDX 3
-------
General Integration Accuracy     IntAcc      ... 4.338
Radial Grid Type                 RadialGrid  ... OptM3 with GC (2021)
Angular Grid (max. ang.)         AngularGrid ... 3 (Lebedev-194)
Angular grid pruning method      GridPruning ... 4 (adaptive)
Weight generation scheme         WeightScheme... mBecke (2022)
Basis function cutoff            BFCut       ... 1.0000e-11
Integration weight cutoff        WCut        ... 1.0000e-14
Partially contracted basis set               ... on
Rotationally invariant grid construction     ... off
Angular grids for H and He will be reduced by one unit

Total number of grid points                  ...    40072
Total number of batches                      ...      320
Average number of points per batch           ...      125
Average number of grid points per atom       ...     2504
UseSFitting                                  ... on
Grids setup in   0.9 sec
Initializing property integral containers    ... done (  0.0 sec)

SHARK setup successfully completed in   1.1 seconds

Maximum memory used throughout the entire STARTUP-calculation: 18.0 MB


           ************************************************************
           *        Program running with 6 parallel MPI-processes     *
           *              working on a common directory               *
           ************************************************************
-------------------------------------------------------------------------------
                                 ORCA GUESS
                   Start orbitals & Density for SCF / CASSCF
-------------------------------------------------------------------------------

------------
SCF SETTINGS
------------
Hamiltonian:
 Density Functional     Method          .... DFT(GTOs)
 Exchange Functional    Exchange        .... B88
   X-Alpha parameter    XAlpha          ....  0.666667
   Becke's b parameter  XBeta           ....  0.004200
 Correlation Functional Correlation     .... LYP
 LDA part of GGA corr.  LDAOpt          .... VWN-5
 Gradients option       PostSCFGGA      .... off
 Hybrid DFT is turned on
   Fraction HF Exchange ScalHFX         ....  0.200000
   Scaling of DF-GGA-X  ScalDFX         ....  0.720000
   Scaling of DF-GGA-C  ScalDFC         ....  0.810000
   Scaling of DF-LDA-C  ScalLDAC        ....  1.000000
   Perturbative correction              ....  0.000000
   NL short-range parameter             ....  4.800000
 RI-approximation to the Coulomb term is turned on
   Number of AuxJ basis functions       .... 404
   RIJ-COSX (HFX calculated with COS-X)).... on


General Settings:
 Integral files         IntName         .... orca
 Hartree-Fock type      HFTyp           .... RHF
 Total Charge           Charge          ....    0
 Multiplicity           Mult            ....    1
 Number of Electrons    NEL             ....   46
 Basis Dimension        Dim             ....  134
 Nuclear Repulsion      ENuc            ....    228.1029452929 Eh

Convergence Acceleration:
 AO-DIIS                CNVDIIS         .... on
   Start iteration      DIISMaxIt       ....    12
   Startup error        DIISStart       ....  0.200000
   # of expansion vecs  DIISMaxEq       ....     5
   Bias factor          DIISBfac        ....   1.050
   Max. coefficient     DIISMaxC        ....  10.000
 MO-DIIS                CNVKDIIS        .... off
 Trust-Rad. Augm. Hess. CNVTRAH         .... auto
   Auto Start mean grad. ratio tolernc. ....  1.125000
   Auto Start start iteration           ....    50
   Auto Start num. interpolation iter.  ....    10
   Max. Number of Micro iterations      ....    24
   Max. Number of Macro iterations      .... Maxiter - #DIIS iter
   Number of Davidson start vectors     ....     2
   Converg. threshold    (grad. norm)   ....   1.000e-05
   Grad. Scal. Fac. for Micro threshold ....   0.100
   Minimum threshold for Micro iter.    ....   1.000e-02
   NR start threshold (gradient norm)   ....   1.000e-04
   Initial trust radius                 ....   0.400
   Minimum AH scaling param. (alpha)    ....   1.000
   Maximum AH scaling param. (alpha)    .... 1000.000
   Quad. conv. algorithm                .... NR
   White noise on init. David. guess    .... on
   Maximum white noise                  ....   0.010
   Pseudo random numbers                .... off
   Inactive MOs                         .... canonical
   Orbital update algorithm             .... Taylor
   Preconditioner                       .... Diag
   Full preconditioner red. dimension   ....   250
 SOSCF                 CNVSOSCF           .... on
   Start iteration     SOSCFMaxIt         ....   150
   Startup grad/error  SOSCFStart         ....  0.003300
   Hessian update      SOSCFHessUp        .... L-BFGS
   Autom. constraints  SOSCFAutoConstrain .... off
 Level Shifting         CNVShift        .... on
   Level shift para.    LevelShift      ....    0.2500
   Turn off err/grad.   ShiftErr        ....    0.0010
 Zerner damping         CNVZerner       .... off
 Static damping         CNVDamp         .... on
   Fraction old density DampFac         ....    0.7000
   Max. Damping (<1)    DampMax         ....    0.9800
   Min. Damping (>=0)   DampMin         ....    0.0000
   Turn off err/grad.   DampErr         ....    0.1000

SCF Procedure:
 Maximum # iterations   MaxIter         ....   125
 SCF integral mode      SCFMode         .... Direct
   Integral package                     .... SHARK and LIBINT hybrid scheme
 Reset frequency        DirectResetFreq ....    20
 Integral Threshold     Thresh          ....  2.500e-11 Eh
 Primitive CutOff       TCut            ....  2.500e-12 Eh

Convergence Tolerance:
 Convergence Check Mode ConvCheckMode   .... Total+1el-Energy
 Convergence forced     ConvForced      .... 0
 Energy Change          TolE            ....  1.000e-08 Eh
 1-El. energy change                    ....  1.000e-05 Eh
 Orbital Gradient       TolG            ....  1.000e-05
 Orbital Rotation angle TolX            ....  1.000e-05
 DIIS Error             TolErr          ....  5.000e-07

------------------------------
INITIAL GUESS: MODEL POTENTIAL
------------------------------
Loading Hartree-Fock densities                     ... done
Calculating cut-offs                               ... done
Initializing the effective Hamiltonian             ... done
Setting up the integral package (SHARK)            ... done
Starting the Coulomb interaction                   ... done (   0.0 sec)
Making the grid                                    ... done (   0.1 sec)
Mapping shells                                     ... done
Starting the XC term evaluation                    ... done (   0.0 sec)
  promolecular density results
     # of electrons  =     45.991011169
     EX              =    -33.720710616
     EC              =     -1.468776578
     EX+EC           =    -35.189487194
Transforming the Hamiltonian                       ... done (   0.0 sec)
Diagonalizing the Hamiltonian                      ... done (   0.0 sec)
Back transforming the eigenvectors                 ... done (   0.0 sec)
Now organizing SCF variables                       ... done
                      ------------------
                      INITIAL GUESS DONE (   0.2 sec)
                      ------------------
             **** ENERGY FILE WAS UPDATED (orca.en.tmp) ****
Finished Guess after   0.4 sec
Maximum memory used throughout the entire GUESS-calculation: 8.7 MB


           ************************************************************
           *        Program running with 6 parallel MPI-processes     *
           *              working on a common directory               *
           ************************************************************

-------------------------------------------------------------------------------------------
                                      ORCA LEAN-SCF
                              memory conserving SCF solver
-------------------------------------------------------------------------------------------

----------------------------------------D-I-I-S--------------------------------------------
Iteration    Energy (Eh)           Delta-E    RMSDP     MaxDP     DIISErr   Damp  Time(sec)
-------------------------------------------------------------------------------------------
               ***  Starting incremental Fock matrix formation  ***
    1    -234.0517545005572515     0.00e+00  8.29e-03  6.09e-02  1.36e-01  0.700   0.9
    2    -234.1281947922935274    -7.64e-02  6.01e-03  3.90e-02  7.44e-02  0.700   0.6
                               ***Turning on AO-DIIS***
    3    -234.1608647350377055    -3.27e-02  2.50e-03  1.30e-02  3.13e-02  0.700   0.5
    4    -234.1796050130968752    -1.87e-02  4.59e-03  2.54e-02  1.65e-02  0.000   0.5
    5    -234.2198304162702129    -4.02e-02  6.57e-04  3.24e-03  4.51e-03  0.000   0.5
                              *** Initializing SOSCF ***
---------------------------------------S-O-S-C-F--------------------------------------
Iteration    Energy (Eh)           Delta-E    RMSDP     MaxDP     MaxGrad    Time(sec)
--------------------------------------------------------------------------------------
    6    -234.2200432465396602    -2.13e-04  2.43e-04  1.22e-03  1.08e-03     0.5
               *** Restarting incremental Fock matrix formation ***
    7    -234.2200281684989136     1.51e-05  1.54e-04  7.32e-04  2.01e-04     0.9
    8    -234.2200286814985475    -5.13e-07  3.59e-05  2.89e-04  1.48e-04     0.7
    9    -234.2200293503333910    -6.69e-07  1.40e-05  5.44e-05  2.41e-05     0.6
   10    -234.2200293615443911    -1.12e-08  5.31e-06  2.80e-05  1.43e-05     0.6
   11    -234.2200293709756806    -9.43e-09  1.35e-06  1.08e-05  3.63e-06     0.6
                 **** Energy Check signals convergence ****

               *****************************************************
               *                     SUCCESS                       *
               *           SCF CONVERGED AFTER  11 CYCLES          *
               *****************************************************

Recomputing exchange energy using gridx3       ... done (    1.284 sec)
Old exchange energy                            :     -6.887050178 Eh
New exchange energy                            :     -6.887097083 Eh
Exchange energy change after final integration :     -0.000046905 Eh
Total energy after final integration           :   -234.220076276 Eh
             **** ENERGY FILE WAS UPDATED (orca.en.tmp) ****

----------------
TOTAL SCF ENERGY
----------------

Total Energy       :       -234.22007627608647 Eh           -6373.45230 eV

Components:
Nuclear Repulsion  :        228.10294529286324 Eh            6206.99670 eV
Electronic Energy  :       -462.32297466403293 Eh          -12580.44772 eV
One Electron Energy:       -765.66426006393863 Eh          -20834.78374 eV
Two Electron Energy:        303.34128539990570 Eh            8254.33602 eV

Virial components:
Potential Energy   :       -465.56552550241679 Eh          -12668.68201 eV
Kinetic Energy     :        231.34544922633032 Eh            6295.22972 eV
Virial Ratio       :          2.01242569092830

DFT components:
N(Alpha)           :       23.000081482493 electrons
N(Beta)            :       23.000081482493 electrons
N(Total)           :       46.000162964986 electrons
E(X)               :      -27.326981696278 Eh       
E(C)               :       -1.744519009990 Eh       
E(XC)              :      -29.071500706268 Eh       

---------------
SCF CONVERGENCE
---------------

  Last Energy change         ...    9.4313e-09  Tolerance :   1.0000e-08
  Last MAX-Density change    ...    1.0758e-05  Tolerance :   1.0000e-07
  Last RMS-Density change    ...    1.3522e-06  Tolerance :   5.0000e-09
  Last DIIS Error            ...    1.0777e-03  Tolerance :   5.0000e-07
  Last Orbital Gradient      ...    3.6269e-06  Tolerance :   1.0000e-05
  Last Orbital Rotation      ...    7.7181e-06  Tolerance :   1.0000e-05


----------------
ORBITAL ENERGIES
----------------

  NO   OCC          E(Eh)            E(eV) 
   0   2.0000     -10.189137      -277.2605 
   1   2.0000     -10.189119      -277.2600 
   2   2.0000     -10.189069      -277.2587 
   3   2.0000     -10.189058      -277.2584 
   4   2.0000     -10.172342      -276.8035 
   5   2.0000     -10.172335      -276.8033 
   6   2.0000      -0.797681       -21.7060 
   7   2.0000      -0.747023       -20.3275 
   8   2.0000      -0.686524       -18.6813 
   9   2.0000      -0.627503       -17.0752 
  10   2.0000      -0.547629       -14.9017 
  11   2.0000      -0.537021       -14.6131 
  12   2.0000      -0.470212       -12.7951 
  13   2.0000      -0.452633       -12.3168 
  14   2.0000      -0.432456       -11.7677 
  15   2.0000      -0.408586       -11.1182 
  16   2.0000      -0.373742       -10.1700 
  17   2.0000      -0.361943        -9.8490 
  18   2.0000      -0.356515        -9.7013 
  19   2.0000      -0.356334        -9.6963 
  20   2.0000      -0.338835        -9.2202 
  21   2.0000      -0.252835        -6.8800 
  22   2.0000      -0.210291        -5.7223 
  23   0.0000      -0.008827        -0.2402 
  24   0.0000       0.027894         0.7590 
  25   0.0000       0.073731         2.0063 
  26   0.0000       0.075077         2.0429 
  27   0.0000       0.090317         2.4577 
  28   0.0000       0.111299         3.0286 
  29   0.0000       0.119572         3.2537 
  30   0.0000       0.122253         3.3267 
  31   0.0000       0.144836         3.9412 
  32   0.0000       0.146271         3.9802 
  33   0.0000       0.160759         4.3745 
*Only the first 10 virtual orbitals were printed.

                    ********************************
                    * MULLIKEN POPULATION ANALYSIS *
                    ********************************

-----------------------
MULLIKEN ATOMIC CHARGES
-----------------------
   0 C :    0.006480
   1 C :   -0.073055
   2 H :    0.016568
   3 H :    0.017022
   4 C :    0.006789
   5 H :   -0.007229
   6 C :    0.006480
   7 H :    0.016963
   8 H :    0.016461
   9 C :   -0.073052
  10 H :    0.016569
  11 H :    0.017022
  12 C :    0.006788
  13 H :   -0.007229
  14 H :    0.016461
  15 H :    0.016964
Sum of atomic charges:    0.0000000

--------------------------------
MULLIKEN REDUCED ORBITAL CHARGES
--------------------------------
  0 C s       :     3.071201  s :     3.071201
      pz      :     0.944462  p :     2.892898
      px      :     0.955263
      py      :     0.993173
      dz2     :     0.005229  d :     0.029421
      dxz     :     0.001354
      dyz     :     0.010973
      dx2y2   :     0.006893
      dxy     :     0.004972

  1 C s       :     3.127023  s :     3.127023
      pz      :     0.947567  p :     2.910462
      px      :     1.006340
      py      :     0.956555
      dz2     :     0.007955  d :     0.035570
      dxz     :     0.003877
      dyz     :     0.012830
      dx2y2   :     0.004990
      dxy     :     0.005917

  2 H s       :     0.960704  s :     0.960704
      pz      :     0.010187  p :     0.022728
      px      :     0.004397
      py      :     0.008144

  3 H s       :     0.960445  s :     0.960445
      pz      :     0.011876  p :     0.022533
      px      :     0.004841
      py      :     0.005816

  4 C s       :     3.070967  s :     3.070967
      pz      :     0.991664  p :     2.892822
      px      :     0.955586
      py      :     0.945572
      dz2     :     0.009319  d :     0.029422
      dxz     :     0.003865
      dyz     :     0.008504
      dx2y2   :     0.005142
      dxy     :     0.002591

  5 H s       :     0.984514  s :     0.984514
      pz      :     0.010420  p :     0.022715
      px      :     0.005412
      py      :     0.006883

  6 C s       :     3.071199  s :     3.071199
      pz      :     0.944462  p :     2.892900
      px      :     0.955263
      py      :     0.993175
      dz2     :     0.005229  d :     0.029421
      dxz     :     0.001354
      dyz     :     0.010973
      dx2y2   :     0.006893
      dxy     :     0.004972

  7 H s       :     0.960490  s :     0.960490
      pz      :     0.004120  p :     0.022547
      px      :     0.004992
      py      :     0.013435

  8 H s       :     0.960810  s :     0.960810
      pz      :     0.011461  p :     0.022729
      px      :     0.004401
      py      :     0.006868

  9 C s       :     3.127021  s :     3.127021
      pz      :     0.947566  p :     2.910462
      px      :     1.006342
      py      :     0.956554
      dz2     :     0.007955  d :     0.035570
      dxz     :     0.003877
      dyz     :     0.012831
      dx2y2   :     0.004989
      dxy     :     0.005917

 10 H s       :     0.960703  s :     0.960703
      pz      :     0.010187  p :     0.022728
      px      :     0.004397
      py      :     0.008144

 11 H s       :     0.960445  s :     0.960445
      pz      :     0.011877  p :     0.022533
      px      :     0.004841
      py      :     0.005816

 12 C s       :     3.070970  s :     3.070970
      pz      :     0.991664  p :     2.892820
      px      :     0.955584
      py      :     0.945572
      dz2     :     0.009319  d :     0.029422
      dxz     :     0.003865
      dyz     :     0.008505
      dx2y2   :     0.005142
      dxy     :     0.002591

 13 H s       :     0.984514  s :     0.984514
      pz      :     0.010420  p :     0.022715
      px      :     0.005412
      py      :     0.006883

 14 H s       :     0.960810  s :     0.960810
      pz      :     0.011461  p :     0.022729
      px      :     0.004401
      py      :     0.006868

 15 H s       :     0.960489  s :     0.960489
      pz      :     0.004120  p :     0.022547
      px      :     0.004992
      py      :     0.013435



                     *******************************
                     * LOEWDIN POPULATION ANALYSIS *
                     *******************************

----------------------
LOEWDIN ATOMIC CHARGES
----------------------
   0 C :   -0.018717
   1 C :   -0.074353
   2 H :    0.022493
   3 H :    0.024098
   4 C :   -0.018690
   5 H :    0.018585
   6 C :   -0.018718
   7 H :    0.024078
   8 H :    0.022505
   9 C :   -0.074352
  10 H :    0.022493
  11 H :    0.024098
  12 C :   -0.018689
  13 H :    0.018585
  14 H :    0.022504
  15 H :    0.024079

-------------------------------
LOEWDIN REDUCED ORBITAL CHARGES
-------------------------------
  0 C s       :     2.892352  s :     2.892352
      pz      :     1.050079  p :     3.054434
      px      :     0.942147
      py      :     1.062209
      dz2     :     0.013805  d :     0.071931
      dxz     :     0.002567
      dyz     :     0.028383
      dx2y2   :     0.016527
      dxy     :     0.010649

  1 C s       :     2.870858  s :     2.870858
      pz      :     1.050196  p :     3.111934
      px      :     1.004793
      py      :     1.056944
      dz2     :     0.021257  d :     0.091561
      dxz     :     0.009200
      dyz     :     0.034664
      dx2y2   :     0.012164
      dxy     :     0.014275

  2 H s       :     0.909737  s :     0.909737
      pz      :     0.030486  p :     0.067770
      px      :     0.014543
      py      :     0.022741

  3 H s       :     0.908699  s :     0.908699
      pz      :     0.034912  p :     0.067203
      px      :     0.015997
      py      :     0.016294

  4 C s       :     2.892263  s :     2.892263
      pz      :     1.063267  p :     3.054485
      px      :     0.941827
      py      :     1.049391
      dz2     :     0.023790  d :     0.071942
      dxz     :     0.008014
      dyz     :     0.022735
      dx2y2   :     0.011984
      dxy     :     0.005419

  5 H s       :     0.914671  s :     0.914671
      pz      :     0.029869  p :     0.066744
      px      :     0.016750
      py      :     0.020124

  6 C s       :     2.892352  s :     2.892352
      pz      :     1.050079  p :     3.054435
      px      :     0.942147
      py      :     1.062210
      dz2     :     0.013806  d :     0.071931
      dxz     :     0.002567
      dyz     :     0.028383
      dx2y2   :     0.016527
      dxy     :     0.010649

  7 H s       :     0.908673  s :     0.908673
      pz      :     0.011338  p :     0.067249
      px      :     0.016439
      py      :     0.039472

  8 H s       :     0.909717  s :     0.909717
      pz      :     0.033131  p :     0.067779
      px      :     0.014535
      py      :     0.020112

  9 C s       :     2.870858  s :     2.870858
      pz      :     1.050196  p :     3.111934
      px      :     1.004793
      py      :     1.056944
      dz2     :     0.021258  d :     0.091561
      dxz     :     0.009200
      dyz     :     0.034665
      dx2y2   :     0.012164
      dxy     :     0.014275

 10 H s       :     0.909736  s :     0.909736
      pz      :     0.030486  p :     0.067770
      px      :     0.014543
      py      :     0.022741

 11 H s       :     0.908699  s :     0.908699
      pz      :     0.034913  p :     0.067203
      px      :     0.015997
      py      :     0.016294

 12 C s       :     2.892264  s :     2.892264
      pz      :     1.063267  p :     3.054483
      px      :     0.941825
      py      :     1.049391
      dz2     :     0.023790  d :     0.071942
      dxz     :     0.008014
      dyz     :     0.022736
      dx2y2   :     0.011984
      dxy     :     0.005419

 13 H s       :     0.914671  s :     0.914671
      pz      :     0.029869  p :     0.066744
      px      :     0.016750
      py      :     0.020125

 14 H s       :     0.909717  s :     0.909717
      pz      :     0.033131  p :     0.067779
      px      :     0.014535
      py      :     0.020113

 15 H s       :     0.908673  s :     0.908673
      pz      :     0.011338  p :     0.067248
      px      :     0.016439
      py      :     0.039472



                      *****************************
                      * MAYER POPULATION ANALYSIS *
                      *****************************

  NA   - Mulliken gross atomic population
  ZA   - Total nuclear charge
  QA   - Mulliken gross atomic charge
  VA   - Mayer's total valence
  BVA  - Mayer's bonded valence
  FA   - Mayer's free valence

  ATOM       NA         ZA         QA         VA         BVA        FA
  0 C      5.9935     6.0000     0.0065     3.9928     3.9928    -0.0000
  1 C      6.0731     6.0000    -0.0731     4.1090     4.1090     0.0000
  2 H      0.9834     1.0000     0.0166     0.9827     0.9827     0.0000
  3 H      0.9830     1.0000     0.0170     0.9743     0.9743     0.0000
  4 C      5.9932     6.0000     0.0068     3.9927     3.9927     0.0000
  5 H      1.0072     1.0000    -0.0072     0.9819     0.9819     0.0000
  6 C      5.9935     6.0000     0.0065     3.9928     3.9928    -0.0000
  7 H      0.9830     1.0000     0.0170     0.9743     0.9743     0.0000
  8 H      0.9835     1.0000     0.0165     0.9827     0.9827    -0.0000
  9 C      6.0731     6.0000    -0.0731     4.1090     4.1090     0.0000
 10 H      0.9834     1.0000     0.0166     0.9827     0.9827     0.0000
 11 H      0.9830     1.0000     0.0170     0.9743     0.9743    -0.0000
 12 C      5.9932     6.0000     0.0068     3.9927     3.9927     0.0000
 13 H      1.0072     1.0000    -0.0072     0.9819     0.9819     0.0000
 14 H      0.9835     1.0000     0.0165     0.9827     0.9827    -0.0000
 15 H      0.9830     1.0000     0.0170     0.9743     0.9743     0.0000

  Mayer bond orders larger than 0.100000
B(  0-C ,  1-C ) :   1.4840 B(  0-C ,  2-H ) :   0.9440 B(  0-C ,  3-H ) :   0.9447 
B(  0-C , 12-C ) :   0.5457 B(  1-C ,  4-C ) :   1.4842 B(  1-C ,  5-H ) :   0.9614 
B(  1-C ,  9-C ) :   0.1067 B(  4-C ,  6-C ) :   0.5457 B(  4-C ,  7-H ) :   0.9447 
B(  4-C ,  8-H ) :   0.9438 B(  6-C ,  9-C ) :   1.4840 B(  6-C , 10-H ) :   0.9440 
B(  6-C , 11-H ) :   0.9447 B(  9-C , 12-C ) :   1.4842 B(  9-C , 13-H ) :   0.9614 
B( 12-C , 14-H ) :   0.9438 B( 12-C , 15-H ) :   0.9447 

-------
TIMINGS
-------

Total SCF time: 0 days 0 hours 0 min 8 sec 

Total time                  ....       8.963 sec
Sum of individual times     ....       8.405 sec  ( 93.8%)

SCF preparation             ....       0.183 sec  (  2.0%)
Fock matrix formation       ....       8.005 sec  ( 89.3%)
  Startup                   ....       0.005 sec  (  0.1% of F)
  Split-RI-J                ....       0.679 sec  (  8.5% of F)
  Chain of spheres X        ....       6.064 sec  ( 75.7% of F)
  XC integration            ....       1.634 sec  ( 20.4% of F)
    XC Preparation          ....       0.000 sec  (  0.0% of XC)
    Basis function eval.    ....       0.442 sec  ( 27.0% of XC)
    Density eval.           ....       0.249 sec  ( 15.3% of XC)
    XC-Functional eval.     ....       0.076 sec  (  4.6% of XC)
    XC-Potential eval.      ....       0.293 sec  ( 17.9% of XC)
Diagonalization             ....       0.000 sec  (  0.0%)
Density matrix formation    ....       0.028 sec  (  0.3%)
Total Energy calculation    ....       0.014 sec  (  0.2%)
Population analysis         ....       0.013 sec  (  0.2%)
Orbital Transformation      ....       0.016 sec  (  0.2%)
Orbital Orthonormalization  ....       0.000 sec  (  0.0%)
DIIS solution               ....       0.095 sec  (  1.1%)
SOSCF solution              ....       0.051 sec  (  0.6%)
Finished LeanSCF after   9.0 sec

Maximum memory used throughout the entire LEANSCF-calculation: 12.2 MB


-------------------------------------------------------------------------------
                          DFT DISPERSION CORRECTION                            
                                                                               
                              DFTD3 V3.1  Rev 1                                
                          USING Becke-Johnson damping                          
-------------------------------------------------------------------------------
The B3LYP functional is recognized
Active option DFTDOPT                   ...         4   

molecular C6(AA) [au] = 2188.962660 


            DFT-D V3
 parameters
 s6 scaling factor         :     1.0000 
 a1 scaling factor         :     0.3981 
 s8 scaling factor         :     1.9889 
 a2 scaling factor         :     4.4211 
 ad hoc parameters k1-k3   :    16.0000     1.3333    -4.0000 

 Edisp/kcal,au: -15.861969906903  -0.025277655351 
 E6   /kcal   :  -7.603792072 
 E8   /kcal   :  -8.258177835 
 % E8         :  52.062750612 

-------------------------   ----------------
Dispersion correction           -0.025277655
-------------------------   ----------------


-------------------------   --------------------
FINAL SINGLE POINT ENERGY      -234.245353931438
-------------------------   --------------------



           ************************************************************
           *        Program running with 6 parallel MPI-processes     *
           *              working on a common directory               *
           ************************************************************
------------------------------------------------------------------------------
                         ORCA SCF GRADIENT CALCULATION
------------------------------------------------------------------------------

Nuc. rep. gradient        (SHARK) ... done (  0.0 sec)
HCore & Overlap gradient  (SHARK) ... done (  0.0 sec)
Split-RIJ-J gradient      (SHARK) ... done (  0.3 sec)
done (  5.2 sec)
XC gradient                       ... done (  1.0 sec)
Dispersion correction             ... done (  0.1 sec)

-------------------
DISPERSION GRADIENT
-------------------

   1   C   :    0.002489736   -0.000051820   -0.000217239
   2   C   :   -0.000602319   -0.000092503   -0.000148381
   3   H   :   -0.000243060    0.000256179   -0.000086221
   4   H   :   -0.000180511    0.000151402   -0.000088465
   5   C   :    0.002485786   -0.000255743   -0.000072615
   6   H   :   -0.000315370   -0.000127945   -0.000189994
   7   C   :   -0.002489724    0.000051793    0.000217204
   8   H   :   -0.000186429   -0.000129311    0.000109850
   9   H   :   -0.000251613   -0.000159699    0.000208170
  10   C   :    0.000602310    0.000092507    0.000148377
  11   H   :    0.000243063   -0.000256176    0.000086223
  12   H   :    0.000180510   -0.000151399    0.000088466
  13   C   :   -0.002485793    0.000255766    0.000072654
  14   H   :    0.000315370    0.000127949    0.000189996
  15   H   :    0.000251616    0.000159695   -0.000208173
  16   H   :    0.000186428    0.000129305   -0.000109853

Difference to translation invariance:
           :    0.0000000000   -0.0000000000    0.0000000000

Difference to rotation invariance:
           :   -0.0000000000   -0.0000000000   -0.0000000000

Norm of the Dispersion gradient    ...    0.0051836101
RMS gradient                       ...    0.0007481897
MAX gradient                       ...    0.0024897359

------------------
CARTESIAN GRADIENT
------------------

   1   C   :    0.000026041   -0.000013010   -0.000018795
   2   C   :    0.000020160   -0.000126498    0.000001432
   3   H   :    0.000012213    0.000055332    0.000013687
   4   H   :   -0.000046302    0.000019369   -0.000023179
   5   C   :   -0.000035564   -0.000111208    0.000045341
   6   H   :   -0.000055616    0.000029131    0.000030876
   7   C   :   -0.000026043    0.000014109    0.000017545
   8   H   :    0.000018204    0.000087451   -0.000089092
   9   H   :    0.000032768    0.000058956    0.000006566
  10   C   :   -0.000020300    0.000126039   -0.000000541
  11   H   :   -0.000012072   -0.000055117   -0.000013508
  12   H   :    0.000046374   -0.000019705    0.000023977
  13   C   :    0.000035687    0.000110429   -0.000045491
  14   H   :    0.000055137   -0.000029255   -0.000031103
  15   H   :   -0.000032633   -0.000059087   -0.000006685
  16   H   :   -0.000018053   -0.000086936    0.000088969

Difference to translation invariance:
           :    0.0000000000   -0.0000000000    0.0000000000

Difference to rotation invariance:
           :   -0.0000946472    0.0004595432   -0.0000334811

Norm of the Cartesian gradient     ...    0.0003604461
RMS gradient                       ...    0.0000520259
MAX gradient                       ...    0.0001264978

-------
TIMINGS
-------

Total SCF gradient time     ....        6.494 sec

Densities                   ....       0.000 sec  (  0.0%)
One electron gradient       ....       0.044 sec  (  0.7%)
RI-J Coulomb gradient       ....       0.260 sec  (  4.0%)
COSX gradient               ....       5.159 sec  ( 79.4%)
XC gradient                 ....       0.972 sec  ( 15.0%)

Maximum memory used throughout the entire SCFGRAD-calculation: 28.6 MB


           ************************************************************
           *        Program running with 6 parallel MPI-processes     *
           *              working on a common directory               *
           ************************************************************

------------------------------------------------------------------------------
                              ORCA PROPERTY CALCULATIONS
------------------------------------------------------------------------------

GBWName                                 ... orca.gbw
Number of atoms                         ...     16
Number of basis functions               ...    134
Max core memory                         ...   4096 MB

Electric properties:
Dipole moment                           ... YES
Quadrupole moment                       ...  NO
Static polarizability (Dipole/Dipole)   ...  NO
Static polarizability (Dipole/Quad.)    ...  NO
Static polarizability (Quad./Quad.)     ...  NO
Static polarizability (Velocity)        ...  NO
Static hyperpolarizability              ...  NO

Atomic electric properties:
Dipole moment                           ...  NO
Quadrupole moment                       ...  NO
Static polarizability                   ...  NO

Choice of electric origin               ... Center of mass
Position of electric origin             ...     0.000002     0.000001    -0.000001

General magnetic properties:
Magnetizability                         ...  NO

EPR properties:
g-Tensor (aka g-matrix)                 ...  NO
Zero-Field splitting spin-orbit         ...  NO
Zero-field splitting spin-spin          ...  NO
Hyperfine couplings                     ...  NO (   0 nuclei)
Quadrupole couplings                    ...  NO (   0 nuclei)
Contact density                         ...  NO (   0 nuclei)

NMR properties:
Chemical shifts                         ...  NO (   0 nuclei)
Spin-rotation constants                 ...  NO (   0 nuclei)
Spin-spin couplings                     ...  NO (   0 nuclei,    0 pairs)

Choice of magnetic origin               ... GIAO
Position of magnetic origin             ...     0.000000     0.000000     0.000000

Properties with geometric perturbations:
SCF Hessian                             ...  NO
IR spectrum                             ...  NO
VCD spectrum                            ...  NO
X-ray spectroscopy properties:
SCF XES/XAS/RIXS spectra                ...  NO

SCF SOC stabilization energy            ...  NO
Diagonal Born-Oppenheimer correction    ...  NO

-------------
DIPOLE MOMENT
-------------

Method             : SCF
Type of density    : Electron Density
Multiplicity       :   1
Irrep              :   0
Energy             :  -234.2200762760864734 Eh
Basis              : AO
                                X                 Y                 Z
Electronic contribution:      0.000012422       0.000007199      -0.000008733
Nuclear contribution   :     -0.000013247      -0.000004706       0.000007064
                        -----------------------------------------
Total Dipole Moment    :     -0.000000825       0.000002493      -0.000001669
                        -----------------------------------------
Magnitude (a.u.)       :      0.000003111
Magnitude (Debye)      :      0.000007909



--------------------
Rotational spectrum 
--------------------
 
Rotational constants in cm-1:             0.149461             0.128687             0.079454 
Rotational constants in MHz :          4480.716774          3857.938268          2381.981732 

Dipole components along the rotational axes: 
x,y,z [a.u.] :    -0.000001     0.000003     0.000000 
x,y,z [Debye]:    -0.000002     0.000008     0.000001 

 

Dipole moment calculation done in   0.0 sec 

Maximum memory used throughout the entire PROP-calculation: 6.8 MB

--------------------------------
SUGGESTED CITATIONS FOR THIS RUN
--------------------------------

Below you find a list of papers that are relevant to this ORCA run
We neither can nor want to force you to cite these papers, but we appreciate if you do
You receive ORCA, which is the product of decades of hard work by many enthusiastic individuals, for free
The only thing we kindly ask in return is that you cite our papers,
We deeply appreciate it, if you show your appreciation for ORCA by not just citing the generic ORCA reference.

Please note that relegating all ORCA citations to the supporting information does *not* help us.
SI sections are not indexed - citations you put there will not count into any citation statistics
But we need these citations in order to attract the funding resources that allow us to do what we are doing

Therefore, if you are a happy ORCA user, please consider citing a few of the papers listed below in the main body of your paper

In addition to the list printed below, the program has created the file orca.bibtex that contains the list in bibtex format
You can import this file easily into all common literature databanks and citation aid programs


List of essential papers. We consider these as the minimum necessary citations

  1. Neese, F.
     Software update: the ORCA program system, version 6.0
     WIRES Comput. Molec. Sci. 2025 15(1), e70019
     doi.org/10.1002/wcms.7019

List of papers to cite with high priority. The work reported in these papers was absolutely
necessary for this run to complete.
Our perspective: the developers of density functionals and basis sets usually get cited in chemistry papers
Good! But without the algorithms to do something with them, the functionals or basis sets would not do anything.
Hence, in our opinion, the algorithm design and method developments papers are equally worthy of getting cited

  1. Neese, F.
     An improvement of the resolution of the identity approximation for the formation of the Coulomb matrix
     J. Comp. Chem. 2003 24(14), 1740-1747
     doi.org/10.1002/jcc.10318
  2. Neese, F.; Wennmohs, F.; Hansen, A.; Becker, U.
     Efficient, approximate and parallel Hartree-Fock and hybrid DFT calculations. A 'chain-of-spheres' algorithm for the Hartree-Fock exchange
     Chem. Phys. 2009 356(1-3), 98-109
     doi.org/10.1016/j.chemphys.2008.10.036
  3. Grimme, S.; Antony, J.; Ehrlich, S.; Krieg, H.
     A consistent and accurate ab initio parametrization of density functional dispersion correction (DFT-D) for the 94 elements H-Pu
     J. Chem. Phys. 2010 132 , 154104
     doi.org/10.1063/1.3382344
  4. Grimme, S.; Ehrlich, S.; Goerigk, L.
     Effect of the damping function in dispersion corrected density functional theory
     J. Comput. Chem. 2011 32(7), 1456-1465
     doi.org/10.1002/jcc.21759
  5. Helmich-Paris, B.; de Souza, B.; Neese, F.; Izsák, R.
     An improved chain of spheres for exchange algorithm
     J. Chem. Phys. 2021 155(10), 104109
     doi.org/10.1063/5.0058766
  6. Neese, F.
     The SHARK Integral Generation and Digestion System
     J. Comp. Chem. 2022 44(3), 381
     doi.org/10.1002/jcc.26942

List of suggested additional citations. These are papers that are important in the 'surrounding' of 
of this run, or papers that preceded the highly important papers. If you like your results we are grateful for a citation.

  1. Izsak, R.; Neese, F.
     An overlap fitted chain of spheres exchange method
     J. Chem. Phys. 2011 135 , 144105
     doi.org/10.1063/1.3646921
  2. Izsak, R.; Hansen, A.; Neese, F.
     The resolution of identity and chain of spheres approximations for the LPNO-CCSD singles Fock term
     Molec. Phys. 2012 110 , 2413-2417
     doi.org/10.1080/00268976.2012.687466
  3. Neese, F.
     The ORCA program system
     WIRES Comput. Molec. Sci. 2012 2(1), 73-78
     doi.org/10.1002/wcms.81
  4. Izsak, R.; Neese, F.; Klopper, W.
     Robust fitting techniques in the chain of spheres approximation to the Fock exchange: The role of the complementary space
     J. Chem. Phys. 2013 139 , 
     doi.org/10.1063/1.4819264
  5. Neese, F.
     Software update: the ORCA program system, version 4.0
     WIRES Comput. Molec. Sci. 2018 8(1), 1-6
     doi.org/10.1002/wcms.1327
  6. Neese, F.; Wennmohs, F.; Becker, U.; Riplinger, C.
     The ORCA quantum chemistry program package
     J. Chem. Phys. 2020 152(22), 224108
     doi.org/10.1063/5.0004608
  7. Neese, F.
     Software update: The ORCA program system—Version 5.0
     WIRES Comput. Molec. Sci. 2022 12(1), e1606
     doi.org/10.1002/wcms.1606

List of optional additional citations

  1. Neese, F.
     Approximate second-order SCF convergence for spin unrestricted wavefunctions
     Chem. Phys. Lett. 2000 325(1-3), 93-98
     doi.org/10.1016/s0009-2614(00)00662-x

Timings for individual modules:

Sum of individual times          ...       18.877 sec (=   0.315 min)
Startup calculation              ...        1.438 sec (=   0.024 min)   7.6 %
SCF iterations                   ...       10.038 sec (=   0.167 min)  53.2 %
Property calculations            ...        0.460 sec (=   0.008 min)   2.4 %
SCF Gradient evaluation          ...        6.941 sec (=   0.116 min)  36.8 %
                             ****ORCA TERMINATED NORMALLY****
TOTAL RUN TIME: 0 days 0 hours 0 minutes 19 seconds 457 msec
