
                                 *****************
                                 * O   R   C   A *
                                 *****************

                                            #,                                       
                                            ###                                      
                                            ####                                     
                                            #####                                    
                                            ######                                   
                                           ########,                                 
                                     ,,################,,,,,                         
                               ,,#################################,,                 
                          ,,##########################################,,             
                       ,#########################################, ''#####,          
                    ,#############################################,,   '####,        
                  ,##################################################,,,,####,       
                ,###########''''           ''''###############################       
              ,#####''   ,,,,##########,,,,          '''####'''          '####       
            ,##' ,,,,###########################,,,                        '##       
           ' ,,###''''                  '''############,,,                           
         ,,##''                                '''############,,,,        ,,,,,,###''
      ,#''                                            '''#######################'''  
     '                                                          ''''####''''         
             ,#######,   #######,   ,#######,      ##                                
            ,#'     '#,  ##    ##  ,#'     '#,    #''#        ,####,    ,#,          
            ##       ##  ##   ,#'  ##            #'  '#       #'       ,# #          
            ##       ##  #######   ##           ,######,      #####,      #          
            '#,     ,#'  ##    ##  '#,     ,#' ,#      #,     #,   #      #          
             '#######'   ##     ##  '#######'  #'      '#     '####' #    #          



                #########################################################
                #                        -***-                          #
                #          Department of theory and spectroscopy        #
                #                                                       #
                #                      Frank Neese                      #
                #                                                       #
                #     Directorship, Architecture, Infrastructure        #
                #                    SHARK, DRIVERS                     #
                #        Core code/Algorithms in most modules           #
                #                                                       #
                #        Max Planck Institute fuer Kohlenforschung      #
                #                Kaiser Wilhelm Platz 1                 #
                #                 D-45470 Muelheim/Ruhr                 #
                #                      Germany                          #
                #                                                       #
                #                  All rights reserved                  #
                #                        -***-                          #
                #########################################################


                         Program Version 6.1.0  -  RELEASE   -
                                (GIT: $679e74b$)
                          ($2025-06-10 18:02:51 +0200$)


 With contributions from (in alphabetic order):
[Max-Planck-Institut fuer Kohlenforschung]                               
  Daniel Aravena         : Magnetic Suceptibility                        
  Michael Atanasov       : Ab Initio Ligand Field Theory (pilot matlab implementation)
  Alexander A. Auer      : GIAO ZORA, VPT2 properties, NMR spectrum      
  Ute Becker             : All parallelization in ORCA, NUMFREQ, NUMCALC 
  Giovanni Bistoni       : ED, misc. LED, open-shell LED, HFLD           
  Dmytro Bykov           : pre 5.0 version of the SCF Hessian            
  Marcos Casanova-Páez   : Triplet and SCS-CIS(D). UHF-(DLPNO)-IP/EA/STEOM-CCSD. UHF-CVS-IP/STEOM-CCSD   
  Vijay G. Chilkuri      : MRCI spin determinant printing, contributions to CSF-ICE 
  Pauline Colinet        : FMM embedding                                 
  Dipayan Datta          : RHF DLPNO-CCSD density                        
  Achintya Kumar Dutta   : EOM-CC, STEOM-CC                              
  Nicolas Foglia         : Exact transition moments, OPA infrastructure, MCD improvements    
  Dmitry Ganyushin       : Spin-Orbit,Spin-Spin,Magnetic field MRCI      
  Miquel Garcia-Rates    : C-PCM and meta-GGA Hessian, CCSD/C-PCM, Gaussian charge scheme 
  Tiago L. C. Gouveia    : GS-ROHF, GS-ROCIS                             
  Yang Guo               : DLPNO-NEVPT2, F12-NEVPT2, CIM, IAO-localization        
  Andreas Hansen         : Spin unrestricted coupled pair/coupled cluster methods 
  Ingolf Harden          : AUTO-CI MPn and infrastructure                
  Benjamin Helmich-Paris : MC-RPA, TRAH-(SCF,CASSCF), AVAS, COSX integrals, SCF dyn. polar., MC-PDFT, srDFT 
  Lee Huntington         : MR-EOM, pCC                                   
  Robert Izsak           : Overlap fitted RIJCOSX, COSX-SCS-MP3, EOM     
  Riya Kayal             : Wick's Theorem for AUTO-CI, AUTO-CI UHF-CCSDT 
  Emily Kempfer          : AUTO-CI RHF CISDT and CCSDT, approximate NEVPT4
  Christian Kollmar      : KDIIS, OOCD, Brueckner-CCSD(T), CCSD density, CASPT2, CASPT2-K, improved NEVPT2 
  Axel Koslowski         : Symmetry handling                             
  Simone Kossmann        : meta-GGA functionals, TD-DFT gradient, OOMP2, (MP2 Hessian; deprecated post 5.0) 
  Lucas Lang             : DCDCAS, Hyperfine gauge corrections, ICE-SOC+SSC
  Marvin Lechner         : AUTO-CI (C++ implementation), FIC-MRCC        
  Spencer Leger          : CASSCF response                               
  Dagmar Lenk            : GEPOL surface, SMD, ORCA-2-JSON               
  Dimitrios Liakos       : Extrapolation schemes; Compound Job, Property file
  Dimitrios Manganas     : Further ROCIS development; embedding schemes. LFT, Crystal Embedding 
  Dimitrios Pantazis     : SARC Basis sets                               
  Anastasios Papadopoulos: AUTO-CI, single reference methods and gradients 
  Taras Petrenko         : pre 6.0 DFT Hessian and TD-DFT gradient,  ECA, NRVS 
  Petra Pikulova         : Analytic Raman intensities                    
  Peter Pinski           : DLPNO-MP2, DLPNO-MP2 Gradient                 
  Shashank Vittal Rao    : ES-AILFT, MagRelax                            
  Christoph Reimann      : Effective Core Potentials                     
  Marius Retegan         : Local ZFS, SOC                                
  Christoph Riplinger    : Optimizer, TS searches, QM/MM, DLPNO-CCSD(T), (RO)-DLPNO pert. Triples 
  Michael Roemelt        : Original ROCIS implementation, recursive CI coupling coefficients
  Masaaki Saitow         : Open-shell DLPNO-CCSD energy and density      
  Barbara Sandhoefer     : DKH picture change effects                    
  Yorick L. A. Schmerwitz: GMF and freeze-and-release deltaSCF, NEB S-IDPP initial path                    
  Kantharuban Sivalingam : CASSCF convergence/infrastructure, NEVPT2, NEVPT3, NEVPT4(SD), FIC-MRCI and CEPA variants
  Bernardo de Souza      : ESD, SOC TD-DFT                               
  Georgi L. Stoychev     : AutoAux, RI-MP2 NMR, DLPNO-MP2 response, X2C  
  Van Anh Tran           : RI-MP2 g-tensors                              
  Willem Van den Heuvel  : Paramagnetic NMR                              
  Zikuan Wang            : NOTCH, Electric field optimization            
  Frank Wennmohs         : Technical directorship and infrastructure     
  Hang Xu                : AUTO-CI-Response properties                   
                                                                         
[FACCTs GmbH]                                                            
  Markus Bursch, Nicolas Foglia, Miquel Garcia-Rates, Ingolf Harden, Hagen Neugebauer, Anastasios Papadopoulos, 
  Christoph Riplinger, Bernardo de Souza, Georgi L. Stoychev                                                    
                                                                 
  APM, various basis sets, CI-OPT, improved COSX, DLPNO-Multilevel,           
  DOCKER, DRACO, updates on ESD, Fragmentator, GOAT, IRC, LR-CPCM, L-BFGS, MBIS, meta-GGA TD-DFT gradient, ML-optimized integration grids, 
  MM, NACMEs, nearIR, NEB, NEB-TS, NL-DFT gradient (VV10), 2- and 3-layer-ONIOM, interface openCOSMO-RS, QMMM,   
  Crystal-QMMM, RESP, rigid body optimization, SF, symmetry and pop. for TD-DFT, various functionals, SOLVATOR                                   
                                                                         
[Other institutions]                                                     
  V. Asgeirsson          : NEB                                           
  Christoph Bannwarth    : sTDA-DFT, sTD-DFT, PBEh-3c, B97-3c, D3        
  Giovanni Bistoni       : ETS/NOCV, ADLD/ADEX, COVALED                  
  Martin Brehm           : Molecular dynamics                            
  Ronald Cardenas        : ETS/NOCV                                      
  Martina Colucci        : COVALED                                       
  Sebastian Ehlert       : rSCAN, r2SCAN, r2SCAN-3c, D4, dhf basis sets  
  Marvin Friede          : D4 for Fr, Ra, Ac-Lr                          
  Lars Goerigk           : TD-DFT with DH, B97 family of functionals     
  Stefan Grimme          : VdW corrections, initial TS optimization, DFT functionals, gCP, sTDA/sTD-DF 
  Waldemar Hujo          : DFT-NL                                        
  H. Jonsson             : NEB                                           
  Holger Kruse           : gCP                                           
  Marcel Mueller         : wB97X-3c, vDZP basis set                      
  Hagen Neugebauer       : wr2SCAN, Native XTB                           
  Gianluca Regni         : ADLD/ADEX                                     
  Tobias Risthaus        : pre 6.0 range-separated hybrid DFT and stability analysis
  Lukas Wittmann         : regularized MP2, r2SCAN double-hybrids, wr2SCAN        
                                                                         
We gratefully acknowledge several colleagues who have allowed us to      
interface, adapt or use parts of their codes:                            
  Ed Valeev, F. Pavosevic, A. Kumar             : LibInt (2-el integral package), F12 methods 
  Garnet Chan, S. Sharma, J. Yang, R. Olivares  : DMRG                   
  Ulf Ekstrom                                   : XCFun DFT Library      
  Mihaly Kallay                                 : mrcc  (arbitrary order and MRCC methods)
  Frank Weinhold                                : gennbo (NPA and NBO analysis)           
  Simon Mueller                                 : openCOSMO-RS                            
  Christopher J. Cramer and Donald G. Truhlar   : smd solvation model                     
  S Lehtola, MJT Oliveira, MAL Marques          : LibXC Library                           
  Liviu Ungur et al                             : ANISO software                          


 Your calculation uses the libint2 library for the computation of 2-el integrals
 For citations please refer to: http://libint.valeyev.net

 Your ORCA version has been built with support for libXC version: 7.0.0
 For citations please refer to: https://libxc.gitlab.io

 This ORCA versions uses:
   CBLAS   interface :  Fast vector & matrix operations
   LAPACKE interface :  Fast linear algebra routines
   SCALAPACK package :  Parallel linear algebra routines
   Shared memory     :  Shared parallel matrices
   BLAS/LAPACK       :  OpenBLAS 0.3.29  USE64BITINT DYNAMIC_ARCH NO_AFFINITY Zen SINGLE_THREADED
        Core in use  :  Zen
   Copyright (c) 2011-2014, The OpenBLAS Project


  ***********************************
  * Starting time: Wed Sep 10 13:33:26 2025
  * Host name:     wyk-Server
  * Process ID:    2273048
  * Working dir.:  /home/wyk/Documents/code/openQDC/MGMR/singlepointcalc/7/prod
  ***********************************

Your calculation utilizes the atom-pairwise dispersion correction
with the Becke-Johnson damping scheme (D3BJ)


Warning: RI is on but no J-basis has been assigned. Assigning Def2/J (nothing to worry about!)
================================================================================

----- Orbital basis set information -----
Your calculation utilizes the basis: def2-SVP
   F. Weigend and R. Ahlrichs, Phys. Chem. Chem. Phys. 7, 3297 (2005).

----- AuxJ basis set information -----
Your calculation utilizes the auxiliary basis: def2/J
   H-Rn: F. Weigend, Phys. Chem. Chem. Phys. 8, 1057 (2006).
   Fr-Lr: K. Eichkorn, F. Weigend, O. Treutler, R. Ahlrichs; Theor. Chem. Acc. 97, 119 (1997).

================================================================================
                                        WARNINGS
                       Please study these warnings very carefully!
================================================================================


================================================================================
                                       INPUT FILE
================================================================================
NAME = orca.inp
|  1> ! B3LYP def2-SVP d3 EnGrad 
|  2> %pal nprocs 6 end 
|  3> *xyz 0 1 
|  4> N   -1.90656292214649 0.08221947220258 0.29661420031242
|  5> B   -0.57094697942467 -0.14499604768041 -0.65820802610532
|  6> N   2.12685101728831 -0.09909229919173 -0.13681177656646
|  7> B   0.81241608692186 0.03324754538001 0.33198121166639
|  8> H   2.34087289286736 -0.3152718812361 -1.10454994173543
|  9> H   -0.67639509679077 0.70846128417236 -1.53859393877604
| 10> H   -0.71985420990553 -1.27270553441754 -1.12809095248785
| 11> H   -2.78254523075778 -0.00232027032213 -0.22355089731919
| 12> H   -1.88479625608464 1.00860626766656 0.72954501645656
| 13> H   2.95313054984678 0.00578584537311 0.44050721421579
| 14> H   0.74157236456075 0.29465070801999 1.53523233110956
| 15> H   -1.92438721637516 -0.60182808996669 1.05683755922954
| 16> *
| 17> 
| 18>                          ****END OF INPUT****
================================================================================

                     *******************************
                     * Energy+Gradient Calculation *
                     *******************************

---------------------------------
CARTESIAN COORDINATES (ANGSTROEM)
---------------------------------
  N     -1.906563    0.082219    0.296614
  B     -0.570947   -0.144996   -0.658208
  N      2.126851   -0.099092   -0.136812
  B      0.812416    0.033248    0.331981
  H      2.340873   -0.315272   -1.104550
  H     -0.676395    0.708461   -1.538594
  H     -0.719854   -1.272706   -1.128091
  H     -2.782545   -0.002320   -0.223551
  H     -1.884796    1.008606    0.729545
  H      2.953131    0.005786    0.440507
  H      0.741572    0.294651    1.535232
  H     -1.924387   -0.601828    1.056838

----------------------------
CARTESIAN COORDINATES (A.U.)
----------------------------
  NO LB      ZA    FRAG     MASS         X           Y           Z
   0 N     7.0000    0    14.007   -3.602882    0.155372    0.560520
   1 B     5.0000    0    10.810   -1.078933   -0.274003   -1.243833
   2 N     7.0000    0    14.007    4.019166   -0.187257   -0.258537
   3 B     5.0000    0    10.810    1.535244    0.062829    0.627354
   4 H     1.0000    0     1.008    4.423609   -0.595778   -2.087297
   5 H     1.0000    0     1.008   -1.278201    1.338798   -2.907521
   6 H     1.0000    0     1.008   -1.360327   -2.405065   -2.131783
   7 H     1.0000    0     1.008   -5.258248   -0.004385   -0.422450
   8 H     1.0000    0     1.008   -3.561749    1.905990    1.378640
   9 H     1.0000    0     1.008    5.580608    0.010934    0.832438
  10 H     1.0000    0     1.008    1.401369    0.556809    2.901169
  11 H     1.0000    0     1.008   -3.636565   -1.137290    1.997134

--------------------------------
INTERNAL COORDINATES (ANGSTROEM)
--------------------------------
 N      0   0   0     0.000000000000     0.00000000     0.00000000
 B      1   0   0     1.657462615865     0.00000000     0.00000000
 N      2   1   0     2.748103934393   132.80305084     0.00000000
 B      3   2   1     1.401791670130    31.18608014   359.55490330
 H      3   2   1     1.014424039169    91.29265741   179.34248787
 H      2   1   3     1.230686019250   104.35863481   237.98984992
 H      2   1   3     1.230728245500   104.36247451   121.85004778
 H      1   2   3     1.022283572137   112.70821203   179.84146002
 H      1   2   3     1.022788039688   110.53992874    58.91472432
 H      3   2   1     1.013427110477   155.53557622   359.36332937
 H      4   3   2     1.233354654135   113.58637563   180.10652934
 H      1   2   3     1.022828591807   110.51990843   300.71008787

---------------------------
INTERNAL COORDINATES (A.U.)
---------------------------
 N      0   0   0     0.000000000000     0.00000000     0.00000000
 B      1   0   0     3.132150421197     0.00000000     0.00000000
 N      2   1   0     5.193163823555   132.80305084     0.00000000
 B      3   2   1     2.649002353357    31.18608014   359.55490330
 H      3   2   1     1.916983617696    91.29265741   179.34248787
 H      2   1   3     2.325659533229   104.35863481   237.98984992
 H      2   1   3     2.325739329277   104.36247451   121.85004778
 H      1   2   3     1.931835982545   112.70821203   179.84146002
 H      1   2   3     1.932789288060   110.53992874    58.91472432
 H      3   2   1     1.915099695493   155.53557622   359.36332937
 H      4   3   2     2.330702522313   113.58637563   180.10652934
 H      1   2   3     1.932865920459   110.51990843   300.71008787

---------------------
BASIS SET INFORMATION
---------------------
There are 3 groups of distinct atoms

 Group   1 Type N   : 7s4p1d contracted to 3s2p1d pattern {511/31/1}
 Group   2 Type B   : 7s4p1d contracted to 3s2p1d pattern {511/31/1}
 Group   3 Type H   : 4s1p contracted to 2s1p pattern {31/1}

Atom   0N    basis set group =>   1
Atom   1B    basis set group =>   2
Atom   2N    basis set group =>   1
Atom   3B    basis set group =>   2
Atom   4H    basis set group =>   3
Atom   5H    basis set group =>   3
Atom   6H    basis set group =>   3
Atom   7H    basis set group =>   3
Atom   8H    basis set group =>   3
Atom   9H    basis set group =>   3
Atom  10H    basis set group =>   3
Atom  11H    basis set group =>   3
---------------------------------
AUXILIARY/J BASIS SET INFORMATION
---------------------------------
There are 3 groups of distinct atoms

 Group   1 Type N   : 12s5p4d2f1g contracted to 6s4p3d1f1g pattern {711111/2111/211/2/1}
 Group   2 Type B   : 12s5p4d2f1g contracted to 6s4p3d1f1g pattern {711111/2111/211/2/1}
 Group   3 Type H   : 5s2p1d contracted to 3s1p1d pattern {311/2/1}

Atom   0N    basis set group =>   1
Atom   1B    basis set group =>   2
Atom   2N    basis set group =>   1
Atom   3B    basis set group =>   2
Atom   4H    basis set group =>   3
Atom   5H    basis set group =>   3
Atom   6H    basis set group =>   3
Atom   7H    basis set group =>   3
Atom   8H    basis set group =>   3
Atom   9H    basis set group =>   3
Atom  10H    basis set group =>   3
Atom  11H    basis set group =>   3


           ************************************************************
           *        Program running with 6 parallel MPI-processes     *
           *              working on a common directory               *
           ************************************************************
------------------------------------------------------------------------------
                             ORCA STARTUP CALCULATIONS
                           -- RI-GTO INTEGRALS CHOSEN --
------------------------------------------------------------------------------
------------------------------------------------------------------------------
                   ___                                                        
                  /   \      - P O W E R E D   B Y -                         
                 /     \                                                     
                 |  |  |   _    _      __       _____    __    __             
                 |  |  |  | |  | |    /  \     |  _  \  |  |  /  |          
                  \  \/   | |  | |   /    \    | | | |  |  | /  /          
                 / \  \   | |__| |  /  /\  \   | |_| |  |  |/  /          
                |  |  |   |  __  | /  /__\  \  |    /   |      \           
                |  |  |   | |  | | |   __   |  |    \   |  |\   \          
                \     /   | |  | | |  |  |  |  | |\  \  |  | \   \       
                 \___/    |_|  |_| |__|  |__|  |_| \__\ |__|  \__/        
                                                                              
                      - O R C A' S   B I G   F R I E N D -                    
                                      &                                       
                       - I N T E G R A L  F E E D E R -                       
                                                                              
 v1 FN, 2020, v2 2021, v3 2022-2024                                           
------------------------------------------------------------------------------


----------------------
SHARK INTEGRAL PACKAGE
----------------------

Number of atoms                             ...     12
Number of basis functions                   ...     96
Number of shells                            ...     48
Maximum angular momentum                    ...      2
Integral batch strategy                     ... SHARK/LIBINT Hybrid
RI-J (if used) integral strategy            ... SPLIT-RIJ (Revised 2003 algorithm where possible)
Printlevel                                  ...      1
Contraction scheme used                     ... SEGMENTED contraction
Prescreening option                         ... SCHWARTZ
   Thresh                                   ... 2.500e-11
   Tcut                                     ... 2.500e-12
   Tpresel                                  ... 2.500e-12 
Coulomb Range Separation                    ... NOT USED
Exchange Range Separation                   ... NOT USED
Multipole approximations                    ... NOT USED
Finite Nucleus Model                        ... NOT USED
CABS basis                                  ... NOT available
Auxiliary Coulomb fitting basis             ... AVAILABLE
   # of basis functions in Aux-J            ...    284
   # of shells in Aux-J                     ...    100
   Maximum angular momentum in Aux-J        ...      4
Auxiliary J/K fitting basis                 ... NOT available
Auxiliary Correlation fitting basis         ... NOT available
Auxiliary 'external' fitting basis          ... NOT available

Checking pre-screening integrals            ... done (  0.0 sec) Dimension = 48
   => SHARK Basis and OBASIS are compatible. Storing Pre-screening
Shell pair information
Shell pair cut-off parameter TPreSel        ...   2.5e-12
Total number of shell pairs                 ...      1176
Shell pairs after pre-screening             ...      1141
Total number of primitive shell pairs       ...      3992
Primitive shell pairs kept                  ...      3115
          la=0 lb=0:    395 shell pairs
          la=1 lb=0:    436 shell pairs
          la=1 lb=1:    128 shell pairs
          la=2 lb=0:    110 shell pairs
          la=2 lb=1:     62 shell pairs
          la=2 lb=2:     10 shell pairs

Checking whether 4 symmetric matrices of dimension 96 fit in memory
:Max Core in MB      =   4096.00
 MB in use           =      4.72
 MB left             =   4091.28
 MB needed           =      0.14
 Data fit in memory  = YES
Calculating RI/J V-Matrix + Cholesky decomp.... done (  0.0 sec)
Calculating Nuclear repulsion               ... done (  0.0 sec) ENN=    107.648266156518 Eh

Diagonalization of the overlap matrix:
Smallest eigenvalue                        ... 1.710e-03
Time for diagonalization                   ...    0.002 sec
Threshold for overlap eigenvalues          ... 1.000e-07
Number of eigenvalues below threshold      ... 0
Time for construction of square roots      ...    0.001 sec
Total time needed                          ...    0.003 sec

-------------------
DFT GRID GENERATION
-------------------

General Integration Accuracy     IntAcc      ... 4.388
Radial Grid Type                 RadialGrid  ... OptM3 with GC (2021)
Angular Grid (max. ang.)         AngularGrid ... 4 (Lebedev-302)
Angular grid pruning method      GridPruning ... 4 (adaptive)
Weight generation scheme         WeightScheme... mBecke (2022)
Basis function cutoff            BFCut       ... 1.0000e-11
Integration weight cutoff        WCut        ... 1.0000e-14
Partially contracted basis set               ... off
Rotationally invariant grid construction     ... off
Angular grids for H and He will be reduced by one unit

Total number of grid points                  ...    50114
Total number of batches                      ...      790
Average number of points per batch           ...       63
Average number of grid points per atom       ...     4176

--------------------
COSX GRID GENERATION
--------------------

GRIDX 1
-------
General Integration Accuracy     IntAcc      ... 3.816
Radial Grid Type                 RadialGrid  ... OptM3 with GC (2021)
Angular Grid (max. ang.)         AngularGrid ... 1 (Lebedev-50)
Angular grid pruning method      GridPruning ... 4 (adaptive)
Weight generation scheme         WeightScheme... mBecke (2022)
Basis function cutoff            BFCut       ... 1.0000e-11
Integration weight cutoff        WCut        ... 1.0000e-14
Partially contracted basis set               ... on
Rotationally invariant grid construction     ... off
Angular grids for H and He will be reduced by one unit

Total number of grid points                  ...     6463
Total number of batches                      ...       59
Average number of points per batch           ...      109
Average number of grid points per atom       ...      539
UseSFitting                                  ... on

GRIDX 2
-------
General Integration Accuracy     IntAcc      ... 4.020
Radial Grid Type                 RadialGrid  ... OptM3 with GC (2021)
Angular Grid (max. ang.)         AngularGrid ... 2 (Lebedev-110)
Angular grid pruning method      GridPruning ... 4 (adaptive)
Weight generation scheme         WeightScheme... mBecke (2022)
Basis function cutoff            BFCut       ... 1.0000e-11
Integration weight cutoff        WCut        ... 1.0000e-14
Partially contracted basis set               ... on
Rotationally invariant grid construction     ... off
Angular grids for H and He will be reduced by one unit

Total number of grid points                  ...    13508
Total number of batches                      ...      113
Average number of points per batch           ...      119
Average number of grid points per atom       ...     1126
UseSFitting                                  ... on

GRIDX 3
-------
General Integration Accuracy     IntAcc      ... 4.338
Radial Grid Type                 RadialGrid  ... OptM3 with GC (2021)
Angular Grid (max. ang.)         AngularGrid ... 3 (Lebedev-194)
Angular grid pruning method      GridPruning ... 4 (adaptive)
Weight generation scheme         WeightScheme... mBecke (2022)
Basis function cutoff            BFCut       ... 1.0000e-11
Integration weight cutoff        WCut        ... 1.0000e-14
Partially contracted basis set               ... on
Rotationally invariant grid construction     ... off
Angular grids for H and He will be reduced by one unit

Total number of grid points                  ...    29601
Total number of batches                      ...      236
Average number of points per batch           ...      125
Average number of grid points per atom       ...     2467
UseSFitting                                  ... on
Grids setup in   0.6 sec
Initializing property integral containers    ... done (  0.0 sec)

SHARK setup successfully completed in   0.7 seconds

Maximum memory used throughout the entire STARTUP-calculation: 14.0 MB


           ************************************************************
           *        Program running with 6 parallel MPI-processes     *
           *              working on a common directory               *
           ************************************************************
-------------------------------------------------------------------------------
                                 ORCA GUESS
                   Start orbitals & Density for SCF / CASSCF
-------------------------------------------------------------------------------

------------
SCF SETTINGS
------------
Hamiltonian:
 Density Functional     Method          .... DFT(GTOs)
 Exchange Functional    Exchange        .... B88
   X-Alpha parameter    XAlpha          ....  0.666667
   Becke's b parameter  XBeta           ....  0.004200
 Correlation Functional Correlation     .... LYP
 LDA part of GGA corr.  LDAOpt          .... VWN-5
 Gradients option       PostSCFGGA      .... off
 Hybrid DFT is turned on
   Fraction HF Exchange ScalHFX         ....  0.200000
   Scaling of DF-GGA-X  ScalDFX         ....  0.720000
   Scaling of DF-GGA-C  ScalDFC         ....  0.810000
   Scaling of DF-LDA-C  ScalLDAC        ....  1.000000
   Perturbative correction              ....  0.000000
   NL short-range parameter             ....  4.800000
 RI-approximation to the Coulomb term is turned on
   Number of AuxJ basis functions       .... 284
   RIJ-COSX (HFX calculated with COS-X)).... on


General Settings:
 Integral files         IntName         .... orca
 Hartree-Fock type      HFTyp           .... RHF
 Total Charge           Charge          ....    0
 Multiplicity           Mult            ....    1
 Number of Electrons    NEL             ....   32
 Basis Dimension        Dim             ....   96
 Nuclear Repulsion      ENuc            ....    107.6482661565 Eh

Convergence Acceleration:
 AO-DIIS                CNVDIIS         .... on
   Start iteration      DIISMaxIt       ....    12
   Startup error        DIISStart       ....  0.200000
   # of expansion vecs  DIISMaxEq       ....     5
   Bias factor          DIISBfac        ....   1.050
   Max. coefficient     DIISMaxC        ....  10.000
 MO-DIIS                CNVKDIIS        .... off
 Trust-Rad. Augm. Hess. CNVTRAH         .... auto
   Auto Start mean grad. ratio tolernc. ....  1.125000
   Auto Start start iteration           ....    50
   Auto Start num. interpolation iter.  ....    10
   Max. Number of Micro iterations      ....    24
   Max. Number of Macro iterations      .... Maxiter - #DIIS iter
   Number of Davidson start vectors     ....     2
   Converg. threshold    (grad. norm)   ....   1.000e-05
   Grad. Scal. Fac. for Micro threshold ....   0.100
   Minimum threshold for Micro iter.    ....   1.000e-02
   NR start threshold (gradient norm)   ....   1.000e-04
   Initial trust radius                 ....   0.400
   Minimum AH scaling param. (alpha)    ....   1.000
   Maximum AH scaling param. (alpha)    .... 1000.000
   Quad. conv. algorithm                .... NR
   White noise on init. David. guess    .... on
   Maximum white noise                  ....   0.010
   Pseudo random numbers                .... off
   Inactive MOs                         .... canonical
   Orbital update algorithm             .... Taylor
   Preconditioner                       .... Diag
   Full preconditioner red. dimension   ....   250
 SOSCF                 CNVSOSCF           .... on
   Start iteration     SOSCFMaxIt         ....   150
   Startup grad/error  SOSCFStart         ....  0.003300
   Hessian update      SOSCFHessUp        .... L-BFGS
   Autom. constraints  SOSCFAutoConstrain .... off
 Level Shifting         CNVShift        .... on
   Level shift para.    LevelShift      ....    0.2500
   Turn off err/grad.   ShiftErr        ....    0.0010
 Zerner damping         CNVZerner       .... off
 Static damping         CNVDamp         .... on
   Fraction old density DampFac         ....    0.7000
   Max. Damping (<1)    DampMax         ....    0.9800
   Min. Damping (>=0)   DampMin         ....    0.0000
   Turn off err/grad.   DampErr         ....    0.1000

SCF Procedure:
 Maximum # iterations   MaxIter         ....   125
 SCF integral mode      SCFMode         .... Direct
   Integral package                     .... SHARK and LIBINT hybrid scheme
 Reset frequency        DirectResetFreq ....    20
 Integral Threshold     Thresh          ....  2.500e-11 Eh
 Primitive CutOff       TCut            ....  2.500e-12 Eh

Convergence Tolerance:
 Convergence Check Mode ConvCheckMode   .... Total+1el-Energy
 Convergence forced     ConvForced      .... 0
 Energy Change          TolE            ....  1.000e-08 Eh
 1-El. energy change                    ....  1.000e-05 Eh
 Orbital Gradient       TolG            ....  1.000e-05
 Orbital Rotation angle TolX            ....  1.000e-05
 DIIS Error             TolErr          ....  5.000e-07

------------------------------
INITIAL GUESS: MODEL POTENTIAL
------------------------------
Loading Hartree-Fock densities                     ... done
Calculating cut-offs                               ... done
Initializing the effective Hamiltonian             ... done
Setting up the integral package (SHARK)            ... done
Starting the Coulomb interaction                   ... done (   0.0 sec)
Making the grid                                    ... done (   0.1 sec)
Mapping shells                                     ... done
Starting the XC term evaluation                    ... done (   0.0 sec)
  promolecular density results
     # of electrons  =     31.997902173
     EX              =    -23.147348632
     EC              =     -0.997522219
     EX+EC           =    -24.144870851
Transforming the Hamiltonian                       ... done (   0.0 sec)
Diagonalizing the Hamiltonian                      ... done (   0.0 sec)
Back transforming the eigenvectors                 ... done (   0.0 sec)
Now organizing SCF variables                       ... done
                      ------------------
                      INITIAL GUESS DONE (   0.1 sec)
                      ------------------
             **** ENERGY FILE WAS UPDATED (orca.en.tmp) ****
Finished Guess after   0.2 sec
Maximum memory used throughout the entire GUESS-calculation: 7.1 MB


           ************************************************************
           *        Program running with 6 parallel MPI-processes     *
           *              working on a common directory               *
           ************************************************************

-------------------------------------------------------------------------------------------
                                      ORCA LEAN-SCF
                              memory conserving SCF solver
-------------------------------------------------------------------------------------------

----------------------------------------D-I-I-S--------------------------------------------
Iteration    Energy (Eh)           Delta-E    RMSDP     MaxDP     DIISErr   Damp  Time(sec)
-------------------------------------------------------------------------------------------
               ***  Starting incremental Fock matrix formation  ***
    1    -163.5725594467801045     0.00e+00  1.43e-02  9.33e-02  2.76e-01  0.700   0.4
    2    -163.6894217035434451    -1.17e-01  1.06e-02  6.52e-02  1.26e-01  0.700   0.3
                               ***Turning on AO-DIIS***
    3    -163.7375189243218472    -4.81e-02  4.43e-03  2.90e-02  4.32e-02  0.700   0.3
    4    -163.7655049153703715    -2.80e-02  6.94e-03  4.33e-02  2.07e-02  0.000   0.3
    5    -163.8259555239316398    -6.05e-02  1.80e-03  1.21e-02  9.82e-03  0.000   0.3
                              *** Initializing SOSCF ***
---------------------------------------S-O-S-C-F--------------------------------------
Iteration    Energy (Eh)           Delta-E    RMSDP     MaxDP     MaxGrad    Time(sec)
--------------------------------------------------------------------------------------
    6    -163.8264653261091723    -5.10e-04  5.71e-04  3.79e-03  2.11e-03     0.3
               *** Restarting incremental Fock matrix formation ***
    7    -163.8264886065127541    -2.33e-05  3.97e-04  2.13e-03  3.16e-04     0.3
    8    -163.8264904131370088    -1.81e-06  8.75e-05  6.49e-04  2.41e-04     0.3
    9    -163.8264919127420569    -1.50e-06  5.79e-05  3.54e-04  8.91e-05     0.3
   10    -163.8264919381599327    -2.54e-08  2.23e-05  1.48e-04  8.58e-05     0.3
   11    -163.8264920535083604    -1.15e-07  6.32e-06  3.08e-05  9.03e-06     0.3
   12    -163.8264920551842181    -1.68e-09  1.79e-06  9.70e-06  3.35e-06     0.3
                 **** Energy Check signals convergence ****

               *****************************************************
               *                     SUCCESS                       *
               *           SCF CONVERGED AFTER  12 CYCLES          *
               *****************************************************

Recomputing exchange energy using gridx3       ... done (    0.548 sec)
Old exchange energy                            :     -4.761159499 Eh
New exchange energy                            :     -4.761163257 Eh
Exchange energy change after final integration :     -0.000003758 Eh
Total energy after final integration           :   -163.826495812 Eh
             **** ENERGY FILE WAS UPDATED (orca.en.tmp) ****

----------------
TOTAL SCF ENERGY
----------------

Total Energy       :       -163.82649581226119 Eh           -4457.94559 eV

Components:
Nuclear Repulsion  :        107.64826615651779 Eh            2929.25824 eV
Electronic Energy  :       -271.47475821084339 Eh           -7387.20373 eV
One Electron Energy:       -433.16684886211732 Eh          -11787.06920 eV
Two Electron Energy:        161.69209065127393 Eh            4399.86547 eV

Virial components:
Potential Energy   :       -325.76196721886561 Eh           -8864.43379 eV
Kinetic Energy     :        161.93547140660445 Eh            4406.48820 eV
Virial Ratio       :          2.01167764165091

DFT components:
N(Alpha)           :       16.000000022963 electrons
N(Beta)            :       16.000000022963 electrons
N(Total)           :       32.000000045926 electrons
E(X)               :      -18.860323229168 Eh       
E(C)               :       -1.195708691419 Eh       
E(XC)              :      -20.056031920587 Eh       

---------------
SCF CONVERGENCE
---------------

  Last Energy change         ...    1.6759e-09  Tolerance :   1.0000e-08
  Last MAX-Density change    ...    9.7034e-06  Tolerance :   1.0000e-07
  Last RMS-Density change    ...    1.7866e-06  Tolerance :   5.0000e-09
  Last DIIS Error            ...    2.1095e-03  Tolerance :   5.0000e-07
  Last Orbital Gradient      ...    3.3516e-06  Tolerance :   1.0000e-05
  Last Orbital Rotation      ...    4.7432e-06  Tolerance :   1.0000e-05


----------------
ORBITAL ENERGIES
----------------

  NO   OCC          E(Eh)            E(eV) 
   0   2.0000     -14.398077      -391.7916 
   1   2.0000     -14.289802      -388.8453 
   2   2.0000      -6.687726      -181.9823 
   3   2.0000      -6.667089      -181.4207 
   4   2.0000      -0.926747       -25.2181 
   5   2.0000      -0.814859       -22.1734 
   6   2.0000      -0.540118       -14.6974 
   7   2.0000      -0.536727       -14.6051 
   8   2.0000      -0.505157       -13.7460 
   9   2.0000      -0.472371       -12.8539 
  10   2.0000      -0.461053       -12.5459 
  11   2.0000      -0.333557        -9.0765 
  12   2.0000      -0.325646        -8.8613 
  13   2.0000      -0.277929        -7.5628 
  14   2.0000      -0.243977        -6.6390 
  15   2.0000      -0.213739        -5.8161 
  16   0.0000       0.018491         0.5032 
  17   0.0000       0.046883         1.2758 
  18   0.0000       0.083026         2.2593 
  19   0.0000       0.090939         2.4746 
  20   0.0000       0.099854         2.7172 
  21   0.0000       0.135426         3.6851 
  22   0.0000       0.161202         4.3865 
  23   0.0000       0.206260         5.6126 
  24   0.0000       0.229682         6.2500 
  25   0.0000       0.234479         6.3805 
  26   0.0000       0.242447         6.5973 
*Only the first 10 virtual orbitals were printed.

                    ********************************
                    * MULLIKEN POPULATION ANALYSIS *
                    ********************************

-----------------------
MULLIKEN ATOMIC CHARGES
-----------------------
   0 N :    0.031589
   1 B :   -0.116904
   2 N :   -0.052556
   3 B :   -0.179697
   4 H :    0.104071
   5 H :   -0.096684
   6 H :   -0.097199
   7 H :    0.140713
   8 H :    0.141670
   9 H :    0.098645
  10 H :   -0.115133
  11 H :    0.141485
Sum of atomic charges:    0.0000000

--------------------------------
MULLIKEN REDUCED ORBITAL CHARGES
--------------------------------
  0 N s       :     3.319968  s :     3.319968
      pz      :     1.211613  p :     3.631804
      px      :     1.287225
      py      :     1.132966
      dz2     :     0.002082  d :     0.016638
      dxz     :     0.002146
      dyz     :     0.006150
      dx2y2   :     0.005540
      dxy     :     0.000720

  1 B s       :     2.817965  s :     2.817965
      pz      :     0.706221  p :     2.244756
      px      :     0.661620
      py      :     0.876915
      dz2     :     0.004089  d :     0.054183
      dxz     :     0.020719
      dyz     :     0.009681
      dx2y2   :     0.015057
      dxy     :     0.004636

  2 N s       :     3.295062  s :     3.295062
      pz      :     1.044819  p :     3.745308
      px      :     1.103925
      py      :     1.596564
      dz2     :     0.003706  d :     0.012186
      dxz     :     0.005396
      dyz     :     0.000468
      dx2y2   :     0.002143
      dxy     :     0.000472

  3 B s       :     3.035086  s :     3.035086
      pz      :     0.825881  p :     2.076066
      px      :     0.856488
      py      :     0.393698
      dz2     :     0.015054  d :     0.068544
      dxz     :     0.018838
      dyz     :     0.003146
      dx2y2   :     0.015656
      dxy     :     0.015851

  4 H s       :     0.849336  s :     0.849336
      pz      :     0.022866  p :     0.046593
      px      :     0.010933
      py      :     0.012794

  5 H s       :     1.085132  s :     1.085132
      pz      :     0.005365  p :     0.011552
      px      :     0.001489
      py      :     0.004698

  6 H s       :     1.085654  s :     1.085654
      pz      :     0.002993  p :     0.011545
      px      :     0.001492
      py      :     0.007060

  7 H s       :     0.813652  s :     0.813652
      pz      :     0.015608  p :     0.045635
      px      :     0.020689
      py      :     0.009337

  8 H s       :     0.812641  s :     0.812641
      pz      :     0.012153  p :     0.045689
      px      :     0.010547
      py      :     0.022990

  9 H s       :     0.854663  s :     0.854663
      pz      :     0.014989  p :     0.046693
      px      :     0.018947
      py      :     0.012757

 10 H s       :     1.104501  s :     1.104501
      pz      :     0.008486  p :     0.010632
      px      :     0.001082
      py      :     0.001064

 11 H s       :     0.812821  s :     0.812821
      pz      :     0.017944  p :     0.045694
      px      :     0.010426
      py      :     0.017324



                     *******************************
                     * LOEWDIN POPULATION ANALYSIS *
                     *******************************

----------------------
LOEWDIN ATOMIC CHARGES
----------------------
   0 N :    0.232613
   1 B :   -0.400761
   2 N :    0.045199
   3 B :   -0.184170
   4 H :    0.075149
   5 H :   -0.042631
   6 H :   -0.042981
   7 H :    0.102292
   8 H :    0.106334
   9 H :    0.068714
  10 H :   -0.066109
  11 H :    0.106350

-------------------------------
LOEWDIN REDUCED ORBITAL CHARGES
-------------------------------
  0 N s       :     3.023413  s :     3.023413
      pz      :     1.241489  p :     3.702801
      px      :     1.285422
      py      :     1.175890
      dz2     :     0.004033  d :     0.041173
      dxz     :     0.006883
      dyz     :     0.014931
      dx2y2   :     0.014063
      dxy     :     0.001263

  1 B s       :     2.732879  s :     2.732879
      pz      :     0.832433  p :     2.517333
      px      :     0.748726
      py      :     0.936174
      dz2     :     0.011001  d :     0.150550
      dxz     :     0.053945
      dyz     :     0.031396
      dx2y2   :     0.044720
      dxy     :     0.009488

  2 N s       :     3.030268  s :     3.030268
      pz      :     1.156913  p :     3.890394
      px      :     1.224571
      py      :     1.508909
      dz2     :     0.010933  d :     0.034138
      dxz     :     0.015884
      dyz     :     0.001184
      dx2y2   :     0.004843
      dxy     :     0.001295

  3 B s       :     2.773741  s :     2.773741
      pz      :     0.906672  p :     2.230667
      px      :     0.902474
      py      :     0.421521
      dz2     :     0.043505  d :     0.179762
      dxz     :     0.046248
      dyz     :     0.008439
      dx2y2   :     0.038517
      dxy     :     0.043053

  4 H s       :     0.807212  s :     0.807212
      pz      :     0.060797  p :     0.117639
      px      :     0.019744
      py      :     0.037098

  5 H s       :     1.012667  s :     1.012667
      pz      :     0.012457  p :     0.029965
      px      :     0.005993
      py      :     0.011514

  6 H s       :     1.013038  s :     1.013038
      pz      :     0.008214  p :     0.029943
      px      :     0.005951
      py      :     0.015777

  7 H s       :     0.785814  s :     0.785814
      pz      :     0.034980  p :     0.111894
      px      :     0.058549
      py      :     0.018365

  8 H s       :     0.782018  s :     0.782018
      pz      :     0.029919  p :     0.111649
      px      :     0.023892
      py      :     0.057838

  9 H s       :     0.812228  s :     0.812228
      pz      :     0.033798  p :     0.119058
      px      :     0.048899
      py      :     0.036361

 10 H s       :     1.037838  s :     1.037838
      pz      :     0.018353  p :     0.028271
      px      :     0.006685
      py      :     0.003232

 11 H s       :     0.782033  s :     0.782033
      pz      :     0.047748  p :     0.111616
      px      :     0.023793
      py      :     0.040075



                      *****************************
                      * MAYER POPULATION ANALYSIS *
                      *****************************

  NA   - Mulliken gross atomic population
  ZA   - Total nuclear charge
  QA   - Mulliken gross atomic charge
  VA   - Mayer's total valence
  BVA  - Mayer's bonded valence
  FA   - Mayer's free valence

  ATOM       NA         ZA         QA         VA         BVA        FA
  0 N      6.9684     7.0000     0.0316     3.6424     3.6424    -0.0000
  1 B      5.1169     5.0000    -0.1169     3.5364     3.5364     0.0000
  2 N      7.0526     7.0000    -0.0526     3.5070     3.5070     0.0000
  3 B      5.1797     5.0000    -0.1797     3.6578     3.6578    -0.0000
  4 H      0.8959     1.0000     0.1041     0.9914     0.9914     0.0000
  5 H      1.0967     1.0000    -0.0967     0.9758     0.9758     0.0000
  6 H      1.0972     1.0000    -0.0972     0.9757     0.9757     0.0000
  7 H      0.8593     1.0000     0.1407     0.9820     0.9820     0.0000
  8 H      0.8583     1.0000     0.1417     0.9864     0.9864     0.0000
  9 H      0.9014     1.0000     0.0986     0.9968     0.9968    -0.0000
 10 H      1.1151     1.0000    -0.1151     0.9201     0.9201     0.0000
 11 H      0.8585     1.0000     0.1415     0.9863     0.9863     0.0000

  Mayer bond orders larger than 0.100000
B(  0-N ,  1-B ) :   0.7421 B(  0-N ,  7-H ) :   0.9634 B(  0-N ,  8-H ) :   0.9696 
B(  0-N , 11-H ) :   0.9699 B(  1-B ,  3-B ) :   0.9839 B(  1-B ,  5-H ) :   0.9483 
B(  1-B ,  6-H ) :   0.9483 B(  2-N ,  3-B ) :   1.6150 B(  2-N ,  4-H ) :   0.9557 
B(  2-N ,  9-H ) :   0.9594 B(  3-B , 10-H ) :   0.9413 

-------
TIMINGS
-------

Total SCF time: 0 days 0 hours 0 min 4 sec 

Total time                  ....       4.685 sec
Sum of individual times     ....       4.136 sec  ( 88.3%)

SCF preparation             ....       0.149 sec  (  3.2%)
Fock matrix formation       ....       3.812 sec  ( 81.4%)
  Startup                   ....       0.004 sec  (  0.1% of F)
  Split-RI-J                ....       0.284 sec  (  7.4% of F)
  Chain of spheres X        ....       2.836 sec  ( 74.4% of F)
  XC integration            ....       0.973 sec  ( 25.5% of F)
    XC Preparation          ....       0.000 sec  (  0.0% of XC)
    Basis function eval.    ....       0.264 sec  ( 27.1% of XC)
    Density eval.           ....       0.129 sec  ( 13.3% of XC)
    XC-Functional eval.     ....       0.064 sec  (  6.6% of XC)
    XC-Potential eval.      ....       0.146 sec  ( 15.0% of XC)
Diagonalization             ....       0.000 sec  (  0.0%)
Density matrix formation    ....       0.026 sec  (  0.5%)
Total Energy calculation    ....       0.013 sec  (  0.3%)
Population analysis         ....       0.019 sec  (  0.4%)
Orbital Transformation      ....       0.013 sec  (  0.3%)
Orbital Orthonormalization  ....       0.000 sec  (  0.0%)
DIIS solution               ....       0.059 sec  (  1.3%)
SOSCF solution              ....       0.045 sec  (  1.0%)
Finished LeanSCF after   4.7 sec

Maximum memory used throughout the entire LEANSCF-calculation: 8.6 MB


-------------------------------------------------------------------------------
                          DFT DISPERSION CORRECTION                            
                                                                               
                              DFTD3 V3.1  Rev 1                                
                          USING Becke-Johnson damping                          
-------------------------------------------------------------------------------
The B3LYP functional is recognized
Active option DFTDOPT                   ...         4   

molecular C6(AA) [au] = 1082.673562 


            DFT-D V3
 parameters
 s6 scaling factor         :     1.0000 
 a1 scaling factor         :     0.3981 
 s8 scaling factor         :     1.9889 
 a2 scaling factor         :     4.4211 
 ad hoc parameters k1-k3   :    16.0000     1.3333    -4.0000 

 Edisp/kcal,au: -7.498049528560  -0.011948901234 
 E6   /kcal   :  -3.631200880 
 E8   /kcal   :  -3.866848649 
 % E8         :  51.571393791 

-------------------------   ----------------
Dispersion correction           -0.011948901
-------------------------   ----------------


-------------------------   --------------------
FINAL SINGLE POINT ENERGY      -163.838444713495
-------------------------   --------------------



           ************************************************************
           *        Program running with 6 parallel MPI-processes     *
           *              working on a common directory               *
           ************************************************************
------------------------------------------------------------------------------
                         ORCA SCF GRADIENT CALCULATION
------------------------------------------------------------------------------

Nuc. rep. gradient        (SHARK) ... done (  0.0 sec)
HCore & Overlap gradient  (SHARK) ... done (  0.0 sec)
Split-RIJ-J gradient      (SHARK) ... done (  0.2 sec)
done (  2.1 sec)
XC gradient                       ... done (  0.4 sec)
Dispersion correction             ... done (  0.0 sec)

-------------------
DISPERSION GRADIENT
-------------------

   1   N   :   -0.000201791   -0.000005853   -0.000047743
   2   B   :   -0.000264452   -0.000046978   -0.000256392
   3   N   :    0.000378280   -0.000002548    0.000030455
   4   B   :    0.000232183    0.000017565    0.000100825
   5   H   :    0.000213739   -0.000019067   -0.000063549
   6   H   :   -0.000051576   -0.000105086   -0.000015183
   7   H   :   -0.000047561    0.000092621   -0.000055897
   8   H   :   -0.000186704    0.000006641    0.000011316
   9   H   :   -0.000189629    0.000094582    0.000074437
  10   H   :    0.000151959    0.000000692    0.000020183
  11   H   :    0.000158790    0.000017688    0.000097733
  12   H   :   -0.000193237   -0.000050256    0.000103817

Difference to translation invariance:
           :    0.0000000000    0.0000000000   -0.0000000000

Difference to rotation invariance:
           :   -0.0000000000    0.0000000000    0.0000000000

Norm of the Dispersion gradient    ...    0.0008136395
RMS gradient                       ...    0.0001356066
MAX gradient                       ...    0.0003782800

------------------
CARTESIAN GRADIENT
------------------

   1   N   :    0.000009357    0.000102294   -0.000097445
   2   B   :    0.000015304    0.000018295    0.000071079
   3   N   :   -0.000055080    0.000064328   -0.000078101
   4   B   :   -0.000054477   -0.000008698    0.000027818
   5   H   :    0.000018036   -0.000046085    0.000024137
   6   H   :    0.000058000   -0.000011721   -0.000016127
   7   H   :   -0.000017287   -0.000024313   -0.000002297
   8   H   :    0.000009166   -0.000001851    0.000044372
   9   H   :   -0.000007924   -0.000057797   -0.000003147
  10   H   :   -0.000013304   -0.000001825    0.000004968
  11   H   :    0.000054524   -0.000019091    0.000018280
  12   H   :   -0.000016315   -0.000013537    0.000006464

Difference to translation invariance:
           :    0.0000000000    0.0000000000    0.0000000000

Difference to rotation invariance:
           :   -0.0000837537   -0.0000448641   -0.0002172841

Norm of the Cartesian gradient     ...    0.0002455254
RMS gradient                       ...    0.0000409209
MAX gradient                       ...    0.0001022936

-------
TIMINGS
-------

Total SCF gradient time     ....        2.778 sec

Densities                   ....       0.000 sec  (  0.0%)
One electron gradient       ....       0.023 sec  (  0.8%)
RI-J Coulomb gradient       ....       0.159 sec  (  5.7%)
COSX gradient               ....       2.139 sec  ( 77.0%)
XC gradient                 ....       0.418 sec  ( 15.0%)

Maximum memory used throughout the entire SCFGRAD-calculation: 27.0 MB


           ************************************************************
           *        Program running with 6 parallel MPI-processes     *
           *              working on a common directory               *
           ************************************************************

------------------------------------------------------------------------------
                              ORCA PROPERTY CALCULATIONS
------------------------------------------------------------------------------

GBWName                                 ... orca.gbw
Number of atoms                         ...     12
Number of basis functions               ...     96
Max core memory                         ...   4096 MB

Electric properties:
Dipole moment                           ... YES
Quadrupole moment                       ...  NO
Static polarizability (Dipole/Dipole)   ...  NO
Static polarizability (Dipole/Quad.)    ...  NO
Static polarizability (Quad./Quad.)     ...  NO
Static polarizability (Velocity)        ...  NO
Static hyperpolarizability              ...  NO

Atomic electric properties:
Dipole moment                           ...  NO
Quadrupole moment                       ...  NO
Static polarizability                   ...  NO

Choice of electric origin               ... Center of mass
Position of electric origin             ...     0.122094    -0.053070    -0.049871

General magnetic properties:
Magnetizability                         ...  NO

EPR properties:
g-Tensor (aka g-matrix)                 ...  NO
Zero-Field splitting spin-orbit         ...  NO
Zero-field splitting spin-spin          ...  NO
Hyperfine couplings                     ...  NO (   0 nuclei)
Quadrupole couplings                    ...  NO (   0 nuclei)
Contact density                         ...  NO (   0 nuclei)

NMR properties:
Chemical shifts                         ...  NO (   0 nuclei)
Spin-rotation constants                 ...  NO (   0 nuclei)
Spin-spin couplings                     ...  NO (   0 nuclei,    0 pairs)

Choice of magnetic origin               ... GIAO
Position of magnetic origin             ...     0.000000     0.000000     0.000000

Properties with geometric perturbations:
SCF Hessian                             ...  NO
IR spectrum                             ...  NO
VCD spectrum                            ...  NO
X-ray spectroscopy properties:
SCF XES/XAS/RIXS spectra                ...  NO

SCF SOC stabilization energy            ...  NO
Diagonal Born-Oppenheimer correction    ...  NO

-------------
DIPOLE MOMENT
-------------

Method             : SCF
Type of density    : Electron Density
Multiplicity       :   1
Irrep              :   0
Energy             :  -163.8264958122611858 Eh
Basis              : AO
                                X                 Y                 Z
Electronic contribution:      1.303758757       0.098619989       0.630916896
Nuclear contribution   :     -2.400976059       0.089187008       0.187684101
                        -----------------------------------------
Total Dipole Moment    :     -1.097217302       0.187806998       0.818600997
                        -----------------------------------------
Magnitude (a.u.)       :      1.381761509
Magnitude (Debye)      :      3.512158641



--------------------
Rotational spectrum 
--------------------
 
Rotational constants in cm-1:             0.832683             0.105690             0.097504 
Rotational constants in MHz :         24963.195023          3168.518026          2923.084591 

Dipole components along the rotational axes: 
x,y,z [a.u.] :    -1.137274    -0.784720    -0.009412 
x,y,z [Debye]:    -2.890720    -1.994599    -0.023924 

 

Dipole moment calculation done in   0.0 sec 

Maximum memory used throughout the entire PROP-calculation: 5.0 MB

--------------------------------
SUGGESTED CITATIONS FOR THIS RUN
--------------------------------

Below you find a list of papers that are relevant to this ORCA run
We neither can nor want to force you to cite these papers, but we appreciate if you do
You receive ORCA, which is the product of decades of hard work by many enthusiastic individuals, for free
The only thing we kindly ask in return is that you cite our papers,
We deeply appreciate it, if you show your appreciation for ORCA by not just citing the generic ORCA reference.

Please note that relegating all ORCA citations to the supporting information does *not* help us.
SI sections are not indexed - citations you put there will not count into any citation statistics
But we need these citations in order to attract the funding resources that allow us to do what we are doing

Therefore, if you are a happy ORCA user, please consider citing a few of the papers listed below in the main body of your paper

In addition to the list printed below, the program has created the file orca.bibtex that contains the list in bibtex format
You can import this file easily into all common literature databanks and citation aid programs


List of essential papers. We consider these as the minimum necessary citations

  1. Neese, F.
     Software update: the ORCA program system, version 6.0
     WIRES Comput. Molec. Sci. 2025 15(1), e70019
     doi.org/10.1002/wcms.7019

List of papers to cite with high priority. The work reported in these papers was absolutely
necessary for this run to complete.
Our perspective: the developers of density functionals and basis sets usually get cited in chemistry papers
Good! But without the algorithms to do something with them, the functionals or basis sets would not do anything.
Hence, in our opinion, the algorithm design and method developments papers are equally worthy of getting cited

  1. Neese, F.
     An improvement of the resolution of the identity approximation for the formation of the Coulomb matrix
     J. Comp. Chem. 2003 24(14), 1740-1747
     doi.org/10.1002/jcc.10318
  2. Neese, F.; Wennmohs, F.; Hansen, A.; Becker, U.
     Efficient, approximate and parallel Hartree-Fock and hybrid DFT calculations. A 'chain-of-spheres' algorithm for the Hartree-Fock exchange
     Chem. Phys. 2009 356(1-3), 98-109
     doi.org/10.1016/j.chemphys.2008.10.036
  3. Grimme, S.; Antony, J.; Ehrlich, S.; Krieg, H.
     A consistent and accurate ab initio parametrization of density functional dispersion correction (DFT-D) for the 94 elements H-Pu
     J. Chem. Phys. 2010 132 , 154104
     doi.org/10.1063/1.3382344
  4. Grimme, S.; Ehrlich, S.; Goerigk, L.
     Effect of the damping function in dispersion corrected density functional theory
     J. Comput. Chem. 2011 32(7), 1456-1465
     doi.org/10.1002/jcc.21759
  5. Helmich-Paris, B.; de Souza, B.; Neese, F.; Izsák, R.
     An improved chain of spheres for exchange algorithm
     J. Chem. Phys. 2021 155(10), 104109
     doi.org/10.1063/5.0058766
  6. Neese, F.
     The SHARK Integral Generation and Digestion System
     J. Comp. Chem. 2022 44(3), 381
     doi.org/10.1002/jcc.26942

List of suggested additional citations. These are papers that are important in the 'surrounding' of 
of this run, or papers that preceded the highly important papers. If you like your results we are grateful for a citation.

  1. Izsak, R.; Neese, F.
     An overlap fitted chain of spheres exchange method
     J. Chem. Phys. 2011 135 , 144105
     doi.org/10.1063/1.3646921
  2. Izsak, R.; Hansen, A.; Neese, F.
     The resolution of identity and chain of spheres approximations for the LPNO-CCSD singles Fock term
     Molec. Phys. 2012 110 , 2413-2417
     doi.org/10.1080/00268976.2012.687466
  3. Neese, F.
     The ORCA program system
     WIRES Comput. Molec. Sci. 2012 2(1), 73-78
     doi.org/10.1002/wcms.81
  4. Izsak, R.; Neese, F.; Klopper, W.
     Robust fitting techniques in the chain of spheres approximation to the Fock exchange: The role of the complementary space
     J. Chem. Phys. 2013 139 , 
     doi.org/10.1063/1.4819264
  5. Neese, F.
     Software update: the ORCA program system, version 4.0
     WIRES Comput. Molec. Sci. 2018 8(1), 1-6
     doi.org/10.1002/wcms.1327
  6. Neese, F.; Wennmohs, F.; Becker, U.; Riplinger, C.
     The ORCA quantum chemistry program package
     J. Chem. Phys. 2020 152(22), 224108
     doi.org/10.1063/5.0004608
  7. Neese, F.
     Software update: The ORCA program system—Version 5.0
     WIRES Comput. Molec. Sci. 2022 12(1), e1606
     doi.org/10.1002/wcms.1606

List of optional additional citations

  1. Neese, F.
     Approximate second-order SCF convergence for spin unrestricted wavefunctions
     Chem. Phys. Lett. 2000 325(1-3), 93-98
     doi.org/10.1016/s0009-2614(00)00662-x

Timings for individual modules:

Sum of individual times          ...       10.522 sec (=   0.175 min)
Startup calculation              ...        1.062 sec (=   0.018 min)  10.1 %
SCF iterations                   ...        5.691 sec (=   0.095 min)  54.1 %
Property calculations            ...        0.418 sec (=   0.007 min)   4.0 %
SCF Gradient evaluation          ...        3.351 sec (=   0.056 min)  31.8 %
                             ****ORCA TERMINATED NORMALLY****
TOTAL RUN TIME: 0 days 0 hours 0 minutes 11 seconds 91 msec
