
                                 *****************
                                 * O   R   C   A *
                                 *****************

                                            #,                                       
                                            ###                                      
                                            ####                                     
                                            #####                                    
                                            ######                                   
                                           ########,                                 
                                     ,,################,,,,,                         
                               ,,#################################,,                 
                          ,,##########################################,,             
                       ,#########################################, ''#####,          
                    ,#############################################,,   '####,        
                  ,##################################################,,,,####,       
                ,###########''''           ''''###############################       
              ,#####''   ,,,,##########,,,,          '''####'''          '####       
            ,##' ,,,,###########################,,,                        '##       
           ' ,,###''''                  '''############,,,                           
         ,,##''                                '''############,,,,        ,,,,,,###''
      ,#''                                            '''#######################'''  
     '                                                          ''''####''''         
             ,#######,   #######,   ,#######,      ##                                
            ,#'     '#,  ##    ##  ,#'     '#,    #''#        ,####,    ,#,          
            ##       ##  ##   ,#'  ##            #'  '#       #'       ,# #          
            ##       ##  #######   ##           ,######,      #####,      #          
            '#,     ,#'  ##    ##  '#,     ,#' ,#      #,     #,   #      #          
             '#######'   ##     ##  '#######'  #'      '#     '####' #    #          



                #########################################################
                #                        -***-                          #
                #          Department of theory and spectroscopy        #
                #                                                       #
                #                      Frank Neese                      #
                #                                                       #
                #     Directorship, Architecture, Infrastructure        #
                #                    SHARK, DRIVERS                     #
                #        Core code/Algorithms in most modules           #
                #                                                       #
                #        Max Planck Institute fuer Kohlenforschung      #
                #                Kaiser Wilhelm Platz 1                 #
                #                 D-45470 Muelheim/Ruhr                 #
                #                      Germany                          #
                #                                                       #
                #                  All rights reserved                  #
                #                        -***-                          #
                #########################################################


                         Program Version 6.1.0  -  RELEASE   -
                                (GIT: $679e74b$)
                          ($2025-06-10 18:02:51 +0200$)


 With contributions from (in alphabetic order):
[Max-Planck-Institut fuer Kohlenforschung]                               
  Daniel Aravena         : Magnetic Suceptibility                        
  Michael Atanasov       : Ab Initio Ligand Field Theory (pilot matlab implementation)
  Alexander A. Auer      : GIAO ZORA, VPT2 properties, NMR spectrum      
  Ute Becker             : All parallelization in ORCA, NUMFREQ, NUMCALC 
  Giovanni Bistoni       : ED, misc. LED, open-shell LED, HFLD           
  Dmytro Bykov           : pre 5.0 version of the SCF Hessian            
  Marcos Casanova-Páez   : Triplet and SCS-CIS(D). UHF-(DLPNO)-IP/EA/STEOM-CCSD. UHF-CVS-IP/STEOM-CCSD   
  Vijay G. Chilkuri      : MRCI spin determinant printing, contributions to CSF-ICE 
  Pauline Colinet        : FMM embedding                                 
  Dipayan Datta          : RHF DLPNO-CCSD density                        
  Achintya Kumar Dutta   : EOM-CC, STEOM-CC                              
  Nicolas Foglia         : Exact transition moments, OPA infrastructure, MCD improvements    
  Dmitry Ganyushin       : Spin-Orbit,Spin-Spin,Magnetic field MRCI      
  Miquel Garcia-Rates    : C-PCM and meta-GGA Hessian, CCSD/C-PCM, Gaussian charge scheme 
  Tiago L. C. Gouveia    : GS-ROHF, GS-ROCIS                             
  Yang Guo               : DLPNO-NEVPT2, F12-NEVPT2, CIM, IAO-localization        
  Andreas Hansen         : Spin unrestricted coupled pair/coupled cluster methods 
  Ingolf Harden          : AUTO-CI MPn and infrastructure                
  Benjamin Helmich-Paris : MC-RPA, TRAH-(SCF,CASSCF), AVAS, COSX integrals, SCF dyn. polar., MC-PDFT, srDFT 
  Lee Huntington         : MR-EOM, pCC                                   
  Robert Izsak           : Overlap fitted RIJCOSX, COSX-SCS-MP3, EOM     
  Riya Kayal             : Wick's Theorem for AUTO-CI, AUTO-CI UHF-CCSDT 
  Emily Kempfer          : AUTO-CI RHF CISDT and CCSDT, approximate NEVPT4
  Christian Kollmar      : KDIIS, OOCD, Brueckner-CCSD(T), CCSD density, CASPT2, CASPT2-K, improved NEVPT2 
  Axel Koslowski         : Symmetry handling                             
  Simone Kossmann        : meta-GGA functionals, TD-DFT gradient, OOMP2, (MP2 Hessian; deprecated post 5.0) 
  Lucas Lang             : DCDCAS, Hyperfine gauge corrections, ICE-SOC+SSC
  Marvin Lechner         : AUTO-CI (C++ implementation), FIC-MRCC        
  Spencer Leger          : CASSCF response                               
  Dagmar Lenk            : GEPOL surface, SMD, ORCA-2-JSON               
  Dimitrios Liakos       : Extrapolation schemes; Compound Job, Property file
  Dimitrios Manganas     : Further ROCIS development; embedding schemes. LFT, Crystal Embedding 
  Dimitrios Pantazis     : SARC Basis sets                               
  Anastasios Papadopoulos: AUTO-CI, single reference methods and gradients 
  Taras Petrenko         : pre 6.0 DFT Hessian and TD-DFT gradient,  ECA, NRVS 
  Petra Pikulova         : Analytic Raman intensities                    
  Peter Pinski           : DLPNO-MP2, DLPNO-MP2 Gradient                 
  Shashank Vittal Rao    : ES-AILFT, MagRelax                            
  Christoph Reimann      : Effective Core Potentials                     
  Marius Retegan         : Local ZFS, SOC                                
  Christoph Riplinger    : Optimizer, TS searches, QM/MM, DLPNO-CCSD(T), (RO)-DLPNO pert. Triples 
  Michael Roemelt        : Original ROCIS implementation, recursive CI coupling coefficients
  Masaaki Saitow         : Open-shell DLPNO-CCSD energy and density      
  Barbara Sandhoefer     : DKH picture change effects                    
  Yorick L. A. Schmerwitz: GMF and freeze-and-release deltaSCF, NEB S-IDPP initial path                    
  Kantharuban Sivalingam : CASSCF convergence/infrastructure, NEVPT2, NEVPT3, NEVPT4(SD), FIC-MRCI and CEPA variants
  Bernardo de Souza      : ESD, SOC TD-DFT                               
  Georgi L. Stoychev     : AutoAux, RI-MP2 NMR, DLPNO-MP2 response, X2C  
  Van Anh Tran           : RI-MP2 g-tensors                              
  Willem Van den Heuvel  : Paramagnetic NMR                              
  Zikuan Wang            : NOTCH, Electric field optimization            
  Frank Wennmohs         : Technical directorship and infrastructure     
  Hang Xu                : AUTO-CI-Response properties                   
                                                                         
[FACCTs GmbH]                                                            
  Markus Bursch, Nicolas Foglia, Miquel Garcia-Rates, Ingolf Harden, Hagen Neugebauer, Anastasios Papadopoulos, 
  Christoph Riplinger, Bernardo de Souza, Georgi L. Stoychev                                                    
                                                                 
  APM, various basis sets, CI-OPT, improved COSX, DLPNO-Multilevel,           
  DOCKER, DRACO, updates on ESD, Fragmentator, GOAT, IRC, LR-CPCM, L-BFGS, MBIS, meta-GGA TD-DFT gradient, ML-optimized integration grids, 
  MM, NACMEs, nearIR, NEB, NEB-TS, NL-DFT gradient (VV10), 2- and 3-layer-ONIOM, interface openCOSMO-RS, QMMM,   
  Crystal-QMMM, RESP, rigid body optimization, SF, symmetry and pop. for TD-DFT, various functionals, SOLVATOR                                   
                                                                         
[Other institutions]                                                     
  V. Asgeirsson          : NEB                                           
  Christoph Bannwarth    : sTDA-DFT, sTD-DFT, PBEh-3c, B97-3c, D3        
  Giovanni Bistoni       : ETS/NOCV, ADLD/ADEX, COVALED                  
  Martin Brehm           : Molecular dynamics                            
  Ronald Cardenas        : ETS/NOCV                                      
  Martina Colucci        : COVALED                                       
  Sebastian Ehlert       : rSCAN, r2SCAN, r2SCAN-3c, D4, dhf basis sets  
  Marvin Friede          : D4 for Fr, Ra, Ac-Lr                          
  Lars Goerigk           : TD-DFT with DH, B97 family of functionals     
  Stefan Grimme          : VdW corrections, initial TS optimization, DFT functionals, gCP, sTDA/sTD-DF 
  Waldemar Hujo          : DFT-NL                                        
  H. Jonsson             : NEB                                           
  Holger Kruse           : gCP                                           
  Marcel Mueller         : wB97X-3c, vDZP basis set                      
  Hagen Neugebauer       : wr2SCAN, Native XTB                           
  Gianluca Regni         : ADLD/ADEX                                     
  Tobias Risthaus        : pre 6.0 range-separated hybrid DFT and stability analysis
  Lukas Wittmann         : regularized MP2, r2SCAN double-hybrids, wr2SCAN        
                                                                         
We gratefully acknowledge several colleagues who have allowed us to      
interface, adapt or use parts of their codes:                            
  Ed Valeev, F. Pavosevic, A. Kumar             : LibInt (2-el integral package), F12 methods 
  Garnet Chan, S. Sharma, J. Yang, R. Olivares  : DMRG                   
  Ulf Ekstrom                                   : XCFun DFT Library      
  Mihaly Kallay                                 : mrcc  (arbitrary order and MRCC methods)
  Frank Weinhold                                : gennbo (NPA and NBO analysis)           
  Simon Mueller                                 : openCOSMO-RS                            
  Christopher J. Cramer and Donald G. Truhlar   : smd solvation model                     
  S Lehtola, MJT Oliveira, MAL Marques          : LibXC Library                           
  Liviu Ungur et al                             : ANISO software                          


 Your calculation uses the libint2 library for the computation of 2-el integrals
 For citations please refer to: http://libint.valeyev.net

 Your ORCA version has been built with support for libXC version: 7.0.0
 For citations please refer to: https://libxc.gitlab.io

 This ORCA versions uses:
   CBLAS   interface :  Fast vector & matrix operations
   LAPACKE interface :  Fast linear algebra routines
   SCALAPACK package :  Parallel linear algebra routines
   Shared memory     :  Shared parallel matrices
   BLAS/LAPACK       :  OpenBLAS 0.3.29  USE64BITINT DYNAMIC_ARCH NO_AFFINITY Zen SINGLE_THREADED
        Core in use  :  Zen
   Copyright (c) 2011-2014, The OpenBLAS Project


  ***********************************
  * Starting time: Wed Sep 10 13:35:44 2025
  * Host name:     wyk-Server
  * Process ID:    2293819
  * Working dir.:  /home/wyk/Documents/code/openQDC/MGMR/singlepointcalc/62/prod
  ***********************************

Your calculation utilizes the atom-pairwise dispersion correction
with the Becke-Johnson damping scheme (D3BJ)


Warning: RI is on but no J-basis has been assigned. Assigning Def2/J (nothing to worry about!)
================================================================================

----- Orbital basis set information -----
Your calculation utilizes the basis: def2-SVP
   F. Weigend and R. Ahlrichs, Phys. Chem. Chem. Phys. 7, 3297 (2005).

----- AuxJ basis set information -----
Your calculation utilizes the auxiliary basis: def2/J
   H-Rn: F. Weigend, Phys. Chem. Chem. Phys. 8, 1057 (2006).
   Fr-Lr: K. Eichkorn, F. Weigend, O. Treutler, R. Ahlrichs; Theor. Chem. Acc. 97, 119 (1997).

================================================================================
                                        WARNINGS
                       Please study these warnings very carefully!
================================================================================


================================================================================
                                       INPUT FILE
================================================================================
NAME = orca.inp
|  1> ! B3LYP def2-SVP d3 EnGrad 
|  2> %pal nprocs 6 end 
|  3> *xyz 0 1 
|  4> C   -1.22342402262875 -0.17674290191516 -0.03947616842585
|  5> H   -1.74580386988652 -0.1166011072178 -1.01078443151315
|  6> H   -1.85744668613909 0.36014894749802 0.6882918195145
|  7> C   0.14302260259427 0.43572073437442 -0.12240322613473
|  8> C   1.29233825517257 -0.19833464547813 0.12576859827938
|  9> H   0.17823622226069 1.49399403359755 -0.4140172567602
| 10> H   2.25679829921257 0.31131736020897 0.04542623612554
| 11> H   -1.17781118301422 -1.23552090663911 0.26013264467636
| 12> H   1.31172538242848 -1.25356651442877 0.41992278423814
| 13> *
| 14> 
| 15>                          ****END OF INPUT****
================================================================================

                     *******************************
                     * Energy+Gradient Calculation *
                     *******************************

---------------------------------
CARTESIAN COORDINATES (ANGSTROEM)
---------------------------------
  C     -1.223424   -0.176743   -0.039476
  H     -1.745804   -0.116601   -1.010784
  H     -1.857447    0.360149    0.688292
  C      0.143023    0.435721   -0.122403
  C      1.292338   -0.198335    0.125769
  H      0.178236    1.493994   -0.414017
  H      2.256798    0.311317    0.045426
  H     -1.177811   -1.235521    0.260133
  H      1.311725   -1.253567    0.419923

----------------------------
CARTESIAN COORDINATES (A.U.)
----------------------------
  NO LB      ZA    FRAG     MASS         X           Y           Z
   0 C     6.0000    0    12.011   -2.311936   -0.333996   -0.074599
   1 H     1.0000    0     1.008   -3.299091   -0.220344   -1.910106
   2 H     1.0000    0     1.008   -3.510066    0.680583    1.300683
   3 C     6.0000    0    12.011    0.270274    0.823393   -0.231309
   4 C     6.0000    0    12.011    2.442165   -0.374798    0.237668
   5 H     1.0000    0     1.008    0.336818    2.823240   -0.782379
   6 H     1.0000    0     1.008    4.264731    0.588305    0.085843
   7 H     1.0000    0     1.008   -2.225741   -2.334796    0.491579
   8 H     1.0000    0     1.008    2.478802   -2.368897    0.793539

--------------------------------
INTERNAL COORDINATES (ANGSTROEM)
--------------------------------
 C      0   0   0     0.000000000000     0.00000000     0.00000000
 H      1   0   0     1.104507800892     0.00000000     0.00000000
 H      1   2   0     1.104483517343   106.34935372     0.00000000
 C      1   2   3     1.499721634925   111.10383880   238.90742504
 C      4   1   2     1.335867489093   125.43556854   239.36222504
 H      4   1   2     1.098280983044   115.93832904    59.30219666
 H      5   4   1     1.093793051087   121.58868075   179.97584838
 H      1   2   3     1.101297795927   108.13034173   115.97794687
 H      5   4   1     1.095635360450   121.48241238   359.94098343

---------------------------
INTERNAL COORDINATES (A.U.)
---------------------------
 C      0   0   0     0.000000000000     0.00000000     0.00000000
 H      1   0   0     2.087217256466     0.00000000     0.00000000
 H      1   2   0     2.087171367208   106.34935372     0.00000000
 C      1   2   3     2.834063167124   111.10383880   238.90742504
 C      4   1   2     2.524423705594   125.43556854   239.36222504
 H      4   1   2     2.075450276047   115.93832904    59.30219666
 H      5   4   1     2.066969313741   121.58868075   179.97584838
 H      1   2   3     2.081151226193   108.13034173   115.97794687
 H      5   4   1     2.070450773891   121.48241238   359.94098343

---------------------
BASIS SET INFORMATION
---------------------
There are 2 groups of distinct atoms

 Group   1 Type C   : 7s4p1d contracted to 3s2p1d pattern {511/31/1}
 Group   2 Type H   : 4s1p contracted to 2s1p pattern {31/1}

Atom   0C    basis set group =>   1
Atom   1H    basis set group =>   2
Atom   2H    basis set group =>   2
Atom   3C    basis set group =>   1
Atom   4C    basis set group =>   1
Atom   5H    basis set group =>   2
Atom   6H    basis set group =>   2
Atom   7H    basis set group =>   2
Atom   8H    basis set group =>   2
---------------------------------
AUXILIARY/J BASIS SET INFORMATION
---------------------------------
There are 2 groups of distinct atoms

 Group   1 Type C   : 12s5p4d2f1g contracted to 6s4p3d1f1g pattern {711111/2111/211/2/1}
 Group   2 Type H   : 5s2p1d contracted to 3s1p1d pattern {311/2/1}

Atom   0C    basis set group =>   1
Atom   1H    basis set group =>   2
Atom   2H    basis set group =>   2
Atom   3C    basis set group =>   1
Atom   4C    basis set group =>   1
Atom   5H    basis set group =>   2
Atom   6H    basis set group =>   2
Atom   7H    basis set group =>   2
Atom   8H    basis set group =>   2


           ************************************************************
           *        Program running with 6 parallel MPI-processes     *
           *              working on a common directory               *
           ************************************************************
------------------------------------------------------------------------------
                             ORCA STARTUP CALCULATIONS
                           -- RI-GTO INTEGRALS CHOSEN --
------------------------------------------------------------------------------
------------------------------------------------------------------------------
                   ___                                                        
                  /   \      - P O W E R E D   B Y -                         
                 /     \                                                     
                 |  |  |   _    _      __       _____    __    __             
                 |  |  |  | |  | |    /  \     |  _  \  |  |  /  |          
                  \  \/   | |  | |   /    \    | | | |  |  | /  /          
                 / \  \   | |__| |  /  /\  \   | |_| |  |  |/  /          
                |  |  |   |  __  | /  /__\  \  |    /   |      \           
                |  |  |   | |  | | |   __   |  |    \   |  |\   \          
                \     /   | |  | | |  |  |  |  | |\  \  |  | \   \       
                 \___/    |_|  |_| |__|  |__|  |_| \__\ |__|  \__/        
                                                                              
                      - O R C A' S   B I G   F R I E N D -                    
                                      &                                       
                       - I N T E G R A L  F E E D E R -                       
                                                                              
 v1 FN, 2020, v2 2021, v3 2022-2024                                           
------------------------------------------------------------------------------


----------------------
SHARK INTEGRAL PACKAGE
----------------------

Number of atoms                             ...      9
Number of basis functions                   ...     72
Number of shells                            ...     36
Maximum angular momentum                    ...      2
Integral batch strategy                     ... SHARK/LIBINT Hybrid
RI-J (if used) integral strategy            ... SPLIT-RIJ (Revised 2003 algorithm where possible)
Printlevel                                  ...      1
Contraction scheme used                     ... SEGMENTED contraction
Prescreening option                         ... SCHWARTZ
   Thresh                                   ... 2.500e-11
   Tcut                                     ... 2.500e-12
   Tpresel                                  ... 2.500e-12 
Coulomb Range Separation                    ... NOT USED
Exchange Range Separation                   ... NOT USED
Multipole approximations                    ... NOT USED
Finite Nucleus Model                        ... NOT USED
CABS basis                                  ... NOT available
Auxiliary Coulomb fitting basis             ... AVAILABLE
   # of basis functions in Aux-J            ...    213
   # of shells in Aux-J                     ...     75
   Maximum angular momentum in Aux-J        ...      4
Auxiliary J/K fitting basis                 ... NOT available
Auxiliary Correlation fitting basis         ... NOT available
Auxiliary 'external' fitting basis          ... NOT available

Checking pre-screening integrals            ... done (  0.0 sec) Dimension = 36
   => SHARK Basis and OBASIS are compatible. Storing Pre-screening
Shell pair information
Shell pair cut-off parameter TPreSel        ...   2.5e-12
Total number of shell pairs                 ...       666
Shell pairs after pre-screening             ...       664
Total number of primitive shell pairs       ...      2268
Primitive shell pairs kept                  ...      1936
          la=0 lb=0:    230 shell pairs
          la=1 lb=0:    251 shell pairs
          la=1 lb=1:     78 shell pairs
          la=2 lb=0:     63 shell pairs
          la=2 lb=1:     36 shell pairs
          la=2 lb=2:      6 shell pairs

Checking whether 4 symmetric matrices of dimension 72 fit in memory
:Max Core in MB      =   4096.00
 MB in use           =      4.09
 MB left             =   4091.91
 MB needed           =      0.08
 Data fit in memory  = YES
Calculating RI/J V-Matrix + Cholesky decomp.... done (  0.0 sec)
Calculating Nuclear repulsion               ... done (  0.0 sec) ENN=     70.416738680932 Eh

Diagonalization of the overlap matrix:
Smallest eigenvalue                        ... 2.664e-03
Time for diagonalization                   ...    0.001 sec
Threshold for overlap eigenvalues          ... 1.000e-07
Number of eigenvalues below threshold      ... 0
Time for construction of square roots      ...    0.000 sec
Total time needed                          ...    0.002 sec

-------------------
DFT GRID GENERATION
-------------------

General Integration Accuracy     IntAcc      ... 4.388
Radial Grid Type                 RadialGrid  ... OptM3 with GC (2021)
Angular Grid (max. ang.)         AngularGrid ... 4 (Lebedev-302)
Angular grid pruning method      GridPruning ... 4 (adaptive)
Weight generation scheme         WeightScheme... mBecke (2022)
Basis function cutoff            BFCut       ... 1.0000e-11
Integration weight cutoff        WCut        ... 1.0000e-14
Partially contracted basis set               ... off
Rotationally invariant grid construction     ... off
Angular grids for H and He will be reduced by one unit

Total number of grid points                  ...    37747
Total number of batches                      ...      594
Average number of points per batch           ...       63
Average number of grid points per atom       ...     4194

--------------------
COSX GRID GENERATION
--------------------

GRIDX 1
-------
General Integration Accuracy     IntAcc      ... 3.816
Radial Grid Type                 RadialGrid  ... OptM3 with GC (2021)
Angular Grid (max. ang.)         AngularGrid ... 1 (Lebedev-50)
Angular grid pruning method      GridPruning ... 4 (adaptive)
Weight generation scheme         WeightScheme... mBecke (2022)
Basis function cutoff            BFCut       ... 1.0000e-11
Integration weight cutoff        WCut        ... 1.0000e-14
Partially contracted basis set               ... on
Rotationally invariant grid construction     ... off
Angular grids for H and He will be reduced by one unit

Total number of grid points                  ...     4894
Total number of batches                      ...       44
Average number of points per batch           ...      111
Average number of grid points per atom       ...      544
UseSFitting                                  ... on

GRIDX 2
-------
General Integration Accuracy     IntAcc      ... 4.020
Radial Grid Type                 RadialGrid  ... OptM3 with GC (2021)
Angular Grid (max. ang.)         AngularGrid ... 2 (Lebedev-110)
Angular grid pruning method      GridPruning ... 4 (adaptive)
Weight generation scheme         WeightScheme... mBecke (2022)
Basis function cutoff            BFCut       ... 1.0000e-11
Integration weight cutoff        WCut        ... 1.0000e-14
Partially contracted basis set               ... on
Rotationally invariant grid construction     ... off
Angular grids for H and He will be reduced by one unit

Total number of grid points                  ...    10243
Total number of batches                      ...       85
Average number of points per batch           ...      120
Average number of grid points per atom       ...     1138
UseSFitting                                  ... on

GRIDX 3
-------
General Integration Accuracy     IntAcc      ... 4.338
Radial Grid Type                 RadialGrid  ... OptM3 with GC (2021)
Angular Grid (max. ang.)         AngularGrid ... 3 (Lebedev-194)
Angular grid pruning method      GridPruning ... 4 (adaptive)
Weight generation scheme         WeightScheme... mBecke (2022)
Basis function cutoff            BFCut       ... 1.0000e-11
Integration weight cutoff        WCut        ... 1.0000e-14
Partially contracted basis set               ... on
Rotationally invariant grid construction     ... off
Angular grids for H and He will be reduced by one unit

Total number of grid points                  ...    22496
Total number of batches                      ...      181
Average number of points per batch           ...      124
Average number of grid points per atom       ...     2500
UseSFitting                                  ... on
Grids setup in   0.4 sec
Initializing property integral containers    ... done (  0.0 sec)

SHARK setup successfully completed in   0.5 seconds

Maximum memory used throughout the entire STARTUP-calculation: 11.1 MB


           ************************************************************
           *        Program running with 6 parallel MPI-processes     *
           *              working on a common directory               *
           ************************************************************
-------------------------------------------------------------------------------
                                 ORCA GUESS
                   Start orbitals & Density for SCF / CASSCF
-------------------------------------------------------------------------------

------------
SCF SETTINGS
------------
Hamiltonian:
 Density Functional     Method          .... DFT(GTOs)
 Exchange Functional    Exchange        .... B88
   X-Alpha parameter    XAlpha          ....  0.666667
   Becke's b parameter  XBeta           ....  0.004200
 Correlation Functional Correlation     .... LYP
 LDA part of GGA corr.  LDAOpt          .... VWN-5
 Gradients option       PostSCFGGA      .... off
 Hybrid DFT is turned on
   Fraction HF Exchange ScalHFX         ....  0.200000
   Scaling of DF-GGA-X  ScalDFX         ....  0.720000
   Scaling of DF-GGA-C  ScalDFC         ....  0.810000
   Scaling of DF-LDA-C  ScalLDAC        ....  1.000000
   Perturbative correction              ....  0.000000
   NL short-range parameter             ....  4.800000
 RI-approximation to the Coulomb term is turned on
   Number of AuxJ basis functions       .... 213
   RIJ-COSX (HFX calculated with COS-X)).... on


General Settings:
 Integral files         IntName         .... orca
 Hartree-Fock type      HFTyp           .... RHF
 Total Charge           Charge          ....    0
 Multiplicity           Mult            ....    1
 Number of Electrons    NEL             ....   24
 Basis Dimension        Dim             ....   72
 Nuclear Repulsion      ENuc            ....     70.4167386809 Eh

Convergence Acceleration:
 AO-DIIS                CNVDIIS         .... on
   Start iteration      DIISMaxIt       ....    12
   Startup error        DIISStart       ....  0.200000
   # of expansion vecs  DIISMaxEq       ....     5
   Bias factor          DIISBfac        ....   1.050
   Max. coefficient     DIISMaxC        ....  10.000
 MO-DIIS                CNVKDIIS        .... off
 Trust-Rad. Augm. Hess. CNVTRAH         .... auto
   Auto Start mean grad. ratio tolernc. ....  1.125000
   Auto Start start iteration           ....    50
   Auto Start num. interpolation iter.  ....    10
   Max. Number of Micro iterations      ....    24
   Max. Number of Macro iterations      .... Maxiter - #DIIS iter
   Number of Davidson start vectors     ....     2
   Converg. threshold    (grad. norm)   ....   1.000e-05
   Grad. Scal. Fac. for Micro threshold ....   0.100
   Minimum threshold for Micro iter.    ....   1.000e-02
   NR start threshold (gradient norm)   ....   1.000e-04
   Initial trust radius                 ....   0.400
   Minimum AH scaling param. (alpha)    ....   1.000
   Maximum AH scaling param. (alpha)    .... 1000.000
   Quad. conv. algorithm                .... NR
   White noise on init. David. guess    .... on
   Maximum white noise                  ....   0.010
   Pseudo random numbers                .... off
   Inactive MOs                         .... canonical
   Orbital update algorithm             .... Taylor
   Preconditioner                       .... Diag
   Full preconditioner red. dimension   ....   250
 SOSCF                 CNVSOSCF           .... on
   Start iteration     SOSCFMaxIt         ....   150
   Startup grad/error  SOSCFStart         ....  0.003300
   Hessian update      SOSCFHessUp        .... L-BFGS
   Autom. constraints  SOSCFAutoConstrain .... off
 Level Shifting         CNVShift        .... on
   Level shift para.    LevelShift      ....    0.2500
   Turn off err/grad.   ShiftErr        ....    0.0010
 Zerner damping         CNVZerner       .... off
 Static damping         CNVDamp         .... on
   Fraction old density DampFac         ....    0.7000
   Max. Damping (<1)    DampMax         ....    0.9800
   Min. Damping (>=0)   DampMin         ....    0.0000
   Turn off err/grad.   DampErr         ....    0.1000

SCF Procedure:
 Maximum # iterations   MaxIter         ....   125
 SCF integral mode      SCFMode         .... Direct
   Integral package                     .... SHARK and LIBINT hybrid scheme
 Reset frequency        DirectResetFreq ....    20
 Integral Threshold     Thresh          ....  2.500e-11 Eh
 Primitive CutOff       TCut            ....  2.500e-12 Eh

Convergence Tolerance:
 Convergence Check Mode ConvCheckMode   .... Total+1el-Energy
 Convergence forced     ConvForced      .... 0
 Energy Change          TolE            ....  1.000e-08 Eh
 1-El. energy change                    ....  1.000e-05 Eh
 Orbital Gradient       TolG            ....  1.000e-05
 Orbital Rotation angle TolX            ....  1.000e-05
 DIIS Error             TolErr          ....  5.000e-07

------------------------------
INITIAL GUESS: MODEL POTENTIAL
------------------------------
Loading Hartree-Fock densities                     ... done
Calculating cut-offs                               ... done
Initializing the effective Hamiltonian             ... done
Setting up the integral package (SHARK)            ... done
Starting the Coulomb interaction                   ... done (   0.0 sec)
Making the grid                                    ... done (   0.1 sec)
Mapping shells                                     ... done
Starting the XC term evaluation                    ... done (   0.0 sec)
  promolecular density results
     # of electrons  =     23.995801744
     EX              =    -17.155114691
     EC              =     -0.747189596
     EX+EC           =    -17.902304287
Transforming the Hamiltonian                       ... done (   0.0 sec)
Diagonalizing the Hamiltonian                      ... done (   0.0 sec)
Back transforming the eigenvectors                 ... done (   0.0 sec)
Now organizing SCF variables                       ... done
                      ------------------
                      INITIAL GUESS DONE (   0.1 sec)
                      ------------------
             **** ENERGY FILE WAS UPDATED (orca.en.tmp) ****
Finished Guess after   0.2 sec
Maximum memory used throughout the entire GUESS-calculation: 6.3 MB


           ************************************************************
           *        Program running with 6 parallel MPI-processes     *
           *              working on a common directory               *
           ************************************************************

-------------------------------------------------------------------------------------------
                                      ORCA LEAN-SCF
                              memory conserving SCF solver
-------------------------------------------------------------------------------------------

----------------------------------------D-I-I-S--------------------------------------------
Iteration    Energy (Eh)           Delta-E    RMSDP     MaxDP     DIISErr   Damp  Time(sec)
-------------------------------------------------------------------------------------------
               ***  Starting incremental Fock matrix formation  ***
    1    -117.6253138295211897     0.00e+00  1.15e-02  7.44e-02  1.67e-01  0.700   0.3
    2    -117.6758975027261442    -5.06e-02  8.46e-03  4.63e-02  8.90e-02  0.700   0.2
                               ***Turning on AO-DIIS***
    3    -117.6975260192837709    -2.16e-02  3.43e-03  1.35e-02  3.52e-02  0.700   0.1
    4    -117.7097224835235352    -1.22e-02  5.76e-03  2.12e-02  1.82e-02  0.000   0.1
    5    -117.7357070258575220    -2.60e-02  1.01e-03  3.58e-03  5.76e-03  0.000   0.1
                              *** Initializing SOSCF ***
---------------------------------------S-O-S-C-F--------------------------------------
Iteration    Energy (Eh)           Delta-E    RMSDP     MaxDP     MaxGrad    Time(sec)
--------------------------------------------------------------------------------------
    6    -117.7358633016184797    -1.56e-04  3.93e-04  1.41e-03  1.71e-03     0.1
               *** Restarting incremental Fock matrix formation ***
    7    -117.7358463055251434     1.70e-05  2.77e-04  1.38e-03  3.28e-04     0.2
    8    -117.7358455030301911     8.02e-07  1.07e-04  9.14e-04  5.73e-04     0.2
    9    -117.7358476545106498    -2.15e-06  5.50e-05  2.57e-04  7.71e-05     0.2
   10    -117.7358476330681185     2.14e-08  2.89e-05  1.29e-04  7.30e-05     0.2
   11    -117.7358477407958901    -1.08e-07  2.22e-06  8.91e-06  2.99e-06     0.2
   12    -117.7358477413970093    -6.01e-10  8.23e-07  2.74e-06  1.65e-06     0.2
                 **** Energy Check signals convergence ****

               *****************************************************
               *                     SUCCESS                       *
               *           SCF CONVERGED AFTER  12 CYCLES          *
               *****************************************************

Recomputing exchange energy using gridx3       ... done (    0.246 sec)
Old exchange energy                            :     -3.518862570 Eh
New exchange energy                            :     -3.518878554 Eh
Exchange energy change after final integration :     -0.000015985 Eh
Total energy after final integration           :   -117.735863726 Eh
             **** ENERGY FILE WAS UPDATED (orca.en.tmp) ****

----------------
TOTAL SCF ENERGY
----------------

Total Energy       :       -117.73586372599141 Eh           -3203.75573 eV

Components:
Nuclear Repulsion  :         70.41673868093193 Eh            1916.13687 eV
Electronic Energy  :       -188.15258642225251 Eh           -5119.89217 eV
One Electron Energy:       -296.08679238052730 Eh           -8056.93123 eV
Two Electron Energy:        107.93420595827477 Eh            2937.03906 eV

Virial components:
Potential Energy   :       -233.99004191700539 Eh           -6367.19274 eV
Kinetic Energy     :        116.25417819101396 Eh            3163.43701 eV
Virial Ratio       :          2.01274522393976

DFT components:
N(Alpha)           :       12.000017650840 electrons
N(Beta)            :       12.000017650840 electrons
N(Total)           :       24.000035301680 electrons
E(X)               :      -13.941152375133 Eh       
E(C)               :       -0.894055743937 Eh       
E(XC)              :      -14.835208119069 Eh       

---------------
SCF CONVERGENCE
---------------

  Last Energy change         ...    6.0112e-10  Tolerance :   1.0000e-08
  Last MAX-Density change    ...    2.7377e-06  Tolerance :   1.0000e-07
  Last RMS-Density change    ...    8.2292e-07  Tolerance :   5.0000e-09
  Last DIIS Error            ...    1.7125e-03  Tolerance :   5.0000e-07
  Last Orbital Gradient      ...    1.6511e-06  Tolerance :   1.0000e-05
  Last Orbital Rotation      ...    1.2922e-06  Tolerance :   1.0000e-05


----------------
ORBITAL ENERGIES
----------------

  NO   OCC          E(Eh)            E(eV) 
   0   2.0000     -10.186980      -277.2018 
   1   2.0000     -10.183426      -277.1051 
   2   2.0000     -10.175185      -276.8809 
   3   2.0000      -0.772938       -21.0327 
   4   2.0000      -0.672824       -18.3085 
   5   2.0000      -0.542743       -14.7688 
   6   2.0000      -0.460779       -12.5384 
   7   2.0000      -0.417388       -11.3577 
   8   2.0000      -0.407776       -11.0962 
   9   2.0000      -0.368246       -10.0205 
  10   2.0000      -0.342165        -9.3108 
  11   2.0000      -0.254494        -6.9251 
  12   0.0000       0.019020         0.5176 
  13   0.0000       0.074177         2.0185 
  14   0.0000       0.097606         2.6560 
  15   0.0000       0.109451         2.9783 
  16   0.0000       0.139063         3.7841 
  17   0.0000       0.150158         4.0860 
  18   0.0000       0.160965         4.3801 
  19   0.0000       0.260236         7.0814 
  20   0.0000       0.359316         9.7775 
  21   0.0000       0.403388        10.9768 
  22   0.0000       0.431078        11.7302 
*Only the first 10 virtual orbitals were printed.

                    ********************************
                    * MULLIKEN POPULATION ANALYSIS *
                    ********************************

-----------------------
MULLIKEN ATOMIC CHARGES
-----------------------
   0 C :    0.055140
   1 H :    0.023047
   2 H :    0.022960
   3 C :   -0.108572
   4 C :   -0.033397
   5 H :    0.002701
   6 H :    0.018081
   7 H :    0.009934
   8 H :    0.010106
Sum of atomic charges:   -0.0000000

--------------------------------
MULLIKEN REDUCED ORBITAL CHARGES
--------------------------------
  0 C s       :     2.958589  s :     2.958589
      pz      :     0.999402  p :     2.957489
      px      :     0.970101
      py      :     0.987986
      dz2     :     0.004879  d :     0.028782
      dxz     :     0.008028
      dyz     :     0.003340
      dx2y2   :     0.007282
      dxy     :     0.005253

  1 H s       :     0.953622  s :     0.953622
      pz      :     0.012021  p :     0.023331
      px      :     0.006408
      py      :     0.004902

  2 H s       :     0.953716  s :     0.953716
      pz      :     0.009197  p :     0.023323
      px      :     0.007355
      py      :     0.006771

  3 C s       :     3.164280  s :     3.164280
      pz      :     0.970902  p :     2.907960
      px      :     0.982346
      py      :     0.954712
      dz2     :     0.002581  d :     0.036332
      dxz     :     0.007967
      dyz     :     0.002456
      dx2y2   :     0.013596
      dxy     :     0.009732

  4 C s       :     3.103627  s :     3.103627
      pz      :     1.019784  p :     2.903230
      px      :     0.951133
      py      :     0.932314
      dz2     :     0.001903  d :     0.026539
      dxz     :     0.004163
      dyz     :     0.001990
      dx2y2   :     0.010166
      dxy     :     0.008316

  5 H s       :     0.974996  s :     0.974996
      pz      :     0.005121  p :     0.022303
      px      :     0.003471
      py      :     0.013711

  6 H s       :     0.958569  s :     0.958569
      pz      :     0.004841  p :     0.023349
      px      :     0.012109
      py      :     0.006399

  7 H s       :     0.967194  s :     0.967194
      pz      :     0.005550  p :     0.022873
      px      :     0.004016
      py      :     0.013306

  8 H s       :     0.966619  s :     0.966619
      pz      :     0.005464  p :     0.023276
      px      :     0.004015
      py      :     0.013797



                     *******************************
                     * LOEWDIN POPULATION ANALYSIS *
                     *******************************

----------------------
LOEWDIN ATOMIC CHARGES
----------------------
   0 C :   -0.056391
   1 H :    0.032760
   2 H :    0.032680
   3 C :   -0.030557
   4 C :   -0.069845
   5 H :    0.022992
   6 H :    0.022303
   7 H :    0.027158
   8 H :    0.018900

-------------------------------
LOEWDIN REDUCED ORBITAL CHARGES
-------------------------------
  0 C s       :     2.838055  s :     2.838055
      pz      :     1.059585  p :     3.145264
      px      :     1.028546
      py      :     1.057133
      dz2     :     0.012778  d :     0.073072
      dxz     :     0.019983
      dyz     :     0.008167
      dx2y2   :     0.018675
      dxy     :     0.013468

  1 H s       :     0.903693  s :     0.903693
      pz      :     0.033320  p :     0.063547
      px      :     0.018325
      py      :     0.011902

  2 H s       :     0.903779  s :     0.903779
      pz      :     0.024191  p :     0.063541
      px      :     0.021196
      py      :     0.018154

  3 C s       :     2.880641  s :     2.880641
      pz      :     0.952227  p :     3.060768
      px      :     1.065350
      py      :     1.043191
      dz2     :     0.005862  d :     0.089148
      dxz     :     0.015779
      dyz     :     0.005394
      dx2y2   :     0.035527
      dxy     :     0.026587

  4 C s       :     2.887320  s :     2.887320
      pz      :     1.009267  p :     3.113241
      px      :     1.060734
      py      :     1.043240
      dz2     :     0.004904  d :     0.069285
      dxz     :     0.008651
      dyz     :     0.004637
      dx2y2   :     0.028171
      dxy     :     0.022922

  5 H s       :     0.911667  s :     0.911667
      pz      :     0.015448  p :     0.065342
      px      :     0.010891
      py      :     0.039002

  6 H s       :     0.910796  s :     0.910796
      pz      :     0.014946  p :     0.066900
      px      :     0.033676
      py      :     0.018279

  7 H s       :     0.909615  s :     0.909615
      pz      :     0.013895  p :     0.063227
      px      :     0.011406
      py      :     0.037926

  8 H s       :     0.914464  s :     0.914464
      pz      :     0.016731  p :     0.066637
      px      :     0.010199
      py      :     0.039706



                      *****************************
                      * MAYER POPULATION ANALYSIS *
                      *****************************

  NA   - Mulliken gross atomic population
  ZA   - Total nuclear charge
  QA   - Mulliken gross atomic charge
  VA   - Mayer's total valence
  BVA  - Mayer's bonded valence
  FA   - Mayer's free valence

  ATOM       NA         ZA         QA         VA         BVA        FA
  0 C      5.9449     6.0000     0.0551     3.9297     3.9297    -0.0000
  1 H      0.9770     1.0000     0.0230     0.9839     0.9839    -0.0000
  2 H      0.9770     1.0000     0.0230     0.9838     0.9838    -0.0000
  3 C      6.1086     6.0000    -0.1086     4.1432     4.1432    -0.0000
  4 C      6.0334     6.0000    -0.0334     3.9622     3.9622    -0.0000
  5 H      0.9973     1.0000     0.0027     0.9780     0.9780    -0.0000
  6 H      0.9819     1.0000     0.0181     0.9741     0.9741    -0.0000
  7 H      0.9901     1.0000     0.0099     0.9965     0.9965     0.0000
  8 H      0.9899     1.0000     0.0101     0.9843     0.9843     0.0000

  Mayer bond orders larger than 0.100000
B(  0-C ,  1-H ) :   0.9548 B(  0-C ,  2-H ) :   0.9549 B(  0-C ,  3-C ) :   1.0769 
B(  0-C ,  7-H ) :   0.9665 B(  3-C ,  4-C ) :   2.0297 B(  3-C ,  5-H ) :   0.9603 
B(  4-C ,  6-H ) :   0.9524 B(  4-C ,  8-H ) :   0.9526 

-------
TIMINGS
-------

Total SCF time: 0 days 0 hours 0 min 2 sec 

Total time                  ....       2.667 sec
Sum of individual times     ....       2.464 sec  ( 92.4%)

SCF preparation             ....       0.158 sec  (  5.9%)
Fock matrix formation       ....       2.188 sec  ( 82.0%)
  Startup                   ....       0.003 sec  (  0.1% of F)
  Split-RI-J                ....       0.150 sec  (  6.9% of F)
  Chain of spheres X        ....       1.532 sec  ( 70.0% of F)
  XC integration            ....       0.593 sec  ( 27.1% of F)
    XC Preparation          ....       0.000 sec  (  0.0% of XC)
    Basis function eval.    ....       0.150 sec  ( 25.3% of XC)
    Density eval.           ....       0.068 sec  ( 11.4% of XC)
    XC-Functional eval.     ....       0.042 sec  (  7.0% of XC)
    XC-Potential eval.      ....       0.076 sec  ( 12.8% of XC)
Diagonalization             ....       0.000 sec  (  0.0%)
Density matrix formation    ....       0.017 sec  (  0.6%)
Total Energy calculation    ....       0.010 sec  (  0.4%)
Population analysis         ....       0.008 sec  (  0.3%)
Orbital Transformation      ....       0.008 sec  (  0.3%)
Orbital Orthonormalization  ....       0.000 sec  (  0.0%)
DIIS solution               ....       0.042 sec  (  1.6%)
SOSCF solution              ....       0.032 sec  (  1.2%)
Finished LeanSCF after   2.7 sec

Maximum memory used throughout the entire LEANSCF-calculation: 6.9 MB


-------------------------------------------------------------------------------
                          DFT DISPERSION CORRECTION                            
                                                                               
                              DFTD3 V3.1  Rev 1                                
                          USING Becke-Johnson damping                          
-------------------------------------------------------------------------------
The B3LYP functional is recognized
Active option DFTDOPT                   ...         4   

molecular C6(AA) [au] = 621.342838 


            DFT-D V3
 parameters
 s6 scaling factor         :     1.0000 
 a1 scaling factor         :     0.3981 
 s8 scaling factor         :     1.9889 
 a2 scaling factor         :     4.4211 
 ad hoc parameters k1-k3   :    16.0000     1.3333    -4.0000 

 Edisp/kcal,au: -5.032492870191  -0.008019787017 
 E6   /kcal   :  -2.477970826 
 E8   /kcal   :  -2.554522044 
 % E8         :  50.760569559 

-------------------------   ----------------
Dispersion correction           -0.008019787
-------------------------   ----------------


-------------------------   --------------------
FINAL SINGLE POINT ENERGY      -117.743883513009
-------------------------   --------------------



           ************************************************************
           *        Program running with 6 parallel MPI-processes     *
           *              working on a common directory               *
           ************************************************************
------------------------------------------------------------------------------
                         ORCA SCF GRADIENT CALCULATION
------------------------------------------------------------------------------

Nuc. rep. gradient        (SHARK) ... done (  0.0 sec)
HCore & Overlap gradient  (SHARK) ... done (  0.0 sec)
Split-RIJ-J gradient      (SHARK) ... done (  0.1 sec)
done (  1.1 sec)
XC gradient                       ... done (  0.3 sec)
Dispersion correction             ... done (  0.1 sec)

-------------------
DISPERSION GRADIENT
-------------------

   1   C   :   -0.000219341   -0.000007049   -0.000011965
   2   H   :   -0.000166409   -0.000016525   -0.000064648
   3   H   :   -0.000173154    0.000013751    0.000043524
   4   C   :    0.000024462    0.000065807   -0.000016683
   5   C   :    0.000333350   -0.000017546    0.000026074
   6   H   :    0.000035058    0.000141673   -0.000037027
   7   H   :    0.000148478    0.000004382    0.000008183
   8   H   :   -0.000146495   -0.000089373    0.000015720
   9   H   :    0.000164051   -0.000095119    0.000036822

Difference to translation invariance:
           :   -0.0000000000    0.0000000000   -0.0000000000

Difference to rotation invariance:
           :    0.0000000000   -0.0000000000    0.0000000000

Norm of the Dispersion gradient    ...    0.0005845045
RMS gradient                       ...    0.0001124879
MAX gradient                       ...    0.0003333502

------------------
CARTESIAN GRADIENT
------------------

   1   C   :    0.000076266    0.000118128    0.000023988
   2   H   :    0.000012597   -0.000033647   -0.000000163
   3   H   :   -0.000031901   -0.000015264   -0.000000766
   4   C   :    0.000111177    0.000080225    0.000020684
   5   C   :   -0.000161452   -0.000124046   -0.000018647
   6   H   :   -0.000040336   -0.000091854    0.000012486
   7   H   :    0.000011622    0.000018573    0.000010755
   8   H   :   -0.000007073   -0.000024353   -0.000027191
   9   H   :    0.000029100    0.000072238   -0.000021146

Difference to translation invariance:
           :    0.0000000000    0.0000000000    0.0000000000

Difference to rotation invariance:
           :    0.0000643050   -0.0000491582   -0.0000508732

Norm of the Cartesian gradient     ...    0.0003203508
RMS gradient                       ...    0.0000616515
MAX gradient                       ...    0.0001614515

-------
TIMINGS
-------

Total SCF gradient time     ....        1.547 sec

Densities                   ....       0.000 sec  (  0.0%)
One electron gradient       ....       0.013 sec  (  0.8%)
RI-J Coulomb gradient       ....       0.111 sec  (  7.2%)
COSX gradient               ....       1.101 sec  ( 71.2%)
XC gradient                 ....       0.268 sec  ( 17.4%)

Maximum memory used throughout the entire SCFGRAD-calculation: 26.2 MB


           ************************************************************
           *        Program running with 6 parallel MPI-processes     *
           *              working on a common directory               *
           ************************************************************

------------------------------------------------------------------------------
                              ORCA PROPERTY CALCULATIONS
------------------------------------------------------------------------------

GBWName                                 ... orca.gbw
Number of atoms                         ...      9
Number of basis functions               ...     72
Max core memory                         ...   4096 MB

Electric properties:
Dipole moment                           ... YES
Quadrupole moment                       ...  NO
Static polarizability (Dipole/Dipole)   ...  NO
Static polarizability (Dipole/Quad.)    ...  NO
Static polarizability (Quad./Quad.)     ...  NO
Static polarizability (Velocity)        ...  NO
Static hyperpolarizability              ...  NO

Atomic electric properties:
Dipole moment                           ...  NO
Quadrupole moment                       ...  NO
Static polarizability                   ...  NO

Choice of electric origin               ... Center of mass
Position of electric origin             ...     0.067495     0.012782    -0.019977

General magnetic properties:
Magnetizability                         ...  NO

EPR properties:
g-Tensor (aka g-matrix)                 ...  NO
Zero-Field splitting spin-orbit         ...  NO
Zero-field splitting spin-spin          ...  NO
Hyperfine couplings                     ...  NO (   0 nuclei)
Quadrupole couplings                    ...  NO (   0 nuclei)
Contact density                         ...  NO (   0 nuclei)

NMR properties:
Chemical shifts                         ...  NO (   0 nuclei)
Spin-rotation constants                 ...  NO (   0 nuclei)
Spin-spin couplings                     ...  NO (   0 nuclei,    0 pairs)

Choice of magnetic origin               ... GIAO
Position of magnetic origin             ...     0.000000     0.000000     0.000000

Properties with geometric perturbations:
SCF Hessian                             ...  NO
IR spectrum                             ...  NO
VCD spectrum                            ...  NO
X-ray spectroscopy properties:
SCF XES/XAS/RIXS spectra                ...  NO

SCF SOC stabilization energy            ...  NO
Diagonal Born-Oppenheimer correction    ...  NO

-------------
DIPOLE MOMENT
-------------

Method             : SCF
Type of density    : Electron Density
Multiplicity       :   1
Irrep              :   0
Energy             :  -117.7358637259914076 Eh
Basis              : AO
                                X                 Y                 Z
Electronic contribution:      1.015277809       0.480884981      -0.067719741
Nuclear contribution   :     -1.171409334      -0.451086577       0.049159039
                        -----------------------------------------
Total Dipole Moment    :     -0.156131525       0.029798403      -0.018560702
                        -----------------------------------------
Magnitude (a.u.)       :      0.160029677
Magnitude (Debye)      :      0.406763113



--------------------
Rotational spectrum 
--------------------
 
Rotational constants in cm-1:             1.552363             0.307353             0.269483 
Rotational constants in MHz :         46538.673242          9214.223541          8078.901096 

Dipole components along the rotational axes: 
x,y,z [a.u.] :     0.156655     0.032689    -0.000400 
x,y,z [Debye]:     0.398185     0.083090    -0.001018 

 

Dipole moment calculation done in   0.0 sec 

Maximum memory used throughout the entire PROP-calculation: 4.3 MB

--------------------------------
SUGGESTED CITATIONS FOR THIS RUN
--------------------------------

Below you find a list of papers that are relevant to this ORCA run
We neither can nor want to force you to cite these papers, but we appreciate if you do
You receive ORCA, which is the product of decades of hard work by many enthusiastic individuals, for free
The only thing we kindly ask in return is that you cite our papers,
We deeply appreciate it, if you show your appreciation for ORCA by not just citing the generic ORCA reference.

Please note that relegating all ORCA citations to the supporting information does *not* help us.
SI sections are not indexed - citations you put there will not count into any citation statistics
But we need these citations in order to attract the funding resources that allow us to do what we are doing

Therefore, if you are a happy ORCA user, please consider citing a few of the papers listed below in the main body of your paper

In addition to the list printed below, the program has created the file orca.bibtex that contains the list in bibtex format
You can import this file easily into all common literature databanks and citation aid programs


List of essential papers. We consider these as the minimum necessary citations

  1. Neese, F.
     Software update: the ORCA program system, version 6.0
     WIRES Comput. Molec. Sci. 2025 15(1), e70019
     doi.org/10.1002/wcms.7019

List of papers to cite with high priority. The work reported in these papers was absolutely
necessary for this run to complete.
Our perspective: the developers of density functionals and basis sets usually get cited in chemistry papers
Good! But without the algorithms to do something with them, the functionals or basis sets would not do anything.
Hence, in our opinion, the algorithm design and method developments papers are equally worthy of getting cited

  1. Neese, F.
     An improvement of the resolution of the identity approximation for the formation of the Coulomb matrix
     J. Comp. Chem. 2003 24(14), 1740-1747
     doi.org/10.1002/jcc.10318
  2. Neese, F.; Wennmohs, F.; Hansen, A.; Becker, U.
     Efficient, approximate and parallel Hartree-Fock and hybrid DFT calculations. A 'chain-of-spheres' algorithm for the Hartree-Fock exchange
     Chem. Phys. 2009 356(1-3), 98-109
     doi.org/10.1016/j.chemphys.2008.10.036
  3. Grimme, S.; Antony, J.; Ehrlich, S.; Krieg, H.
     A consistent and accurate ab initio parametrization of density functional dispersion correction (DFT-D) for the 94 elements H-Pu
     J. Chem. Phys. 2010 132 , 154104
     doi.org/10.1063/1.3382344
  4. Grimme, S.; Ehrlich, S.; Goerigk, L.
     Effect of the damping function in dispersion corrected density functional theory
     J. Comput. Chem. 2011 32(7), 1456-1465
     doi.org/10.1002/jcc.21759
  5. Helmich-Paris, B.; de Souza, B.; Neese, F.; Izsák, R.
     An improved chain of spheres for exchange algorithm
     J. Chem. Phys. 2021 155(10), 104109
     doi.org/10.1063/5.0058766
  6. Neese, F.
     The SHARK Integral Generation and Digestion System
     J. Comp. Chem. 2022 44(3), 381
     doi.org/10.1002/jcc.26942

List of suggested additional citations. These are papers that are important in the 'surrounding' of 
of this run, or papers that preceded the highly important papers. If you like your results we are grateful for a citation.

  1. Izsak, R.; Neese, F.
     An overlap fitted chain of spheres exchange method
     J. Chem. Phys. 2011 135 , 144105
     doi.org/10.1063/1.3646921
  2. Izsak, R.; Hansen, A.; Neese, F.
     The resolution of identity and chain of spheres approximations for the LPNO-CCSD singles Fock term
     Molec. Phys. 2012 110 , 2413-2417
     doi.org/10.1080/00268976.2012.687466
  3. Neese, F.
     The ORCA program system
     WIRES Comput. Molec. Sci. 2012 2(1), 73-78
     doi.org/10.1002/wcms.81
  4. Izsak, R.; Neese, F.; Klopper, W.
     Robust fitting techniques in the chain of spheres approximation to the Fock exchange: The role of the complementary space
     J. Chem. Phys. 2013 139 , 
     doi.org/10.1063/1.4819264
  5. Neese, F.
     Software update: the ORCA program system, version 4.0
     WIRES Comput. Molec. Sci. 2018 8(1), 1-6
     doi.org/10.1002/wcms.1327
  6. Neese, F.; Wennmohs, F.; Becker, U.; Riplinger, C.
     The ORCA quantum chemistry program package
     J. Chem. Phys. 2020 152(22), 224108
     doi.org/10.1063/5.0004608
  7. Neese, F.
     Software update: The ORCA program system—Version 5.0
     WIRES Comput. Molec. Sci. 2022 12(1), e1606
     doi.org/10.1002/wcms.1606

List of optional additional citations

  1. Neese, F.
     Approximate second-order SCF convergence for spin unrestricted wavefunctions
     Chem. Phys. Lett. 2000 325(1-3), 93-98
     doi.org/10.1016/s0009-2614(00)00662-x

Timings for individual modules:

Sum of individual times          ...        6.955 sec (=   0.116 min)
Startup calculation              ...        0.868 sec (=   0.014 min)  12.5 %
SCF iterations                   ...        3.640 sec (=   0.061 min)  52.3 %
Property calculations            ...        0.409 sec (=   0.007 min)   5.9 %
SCF Gradient evaluation          ...        2.039 sec (=   0.034 min)  29.3 %
                             ****ORCA TERMINATED NORMALLY****
TOTAL RUN TIME: 0 days 0 hours 0 minutes 7 seconds 482 msec
