
                                 *****************
                                 * O   R   C   A *
                                 *****************

                                            #,                                       
                                            ###                                      
                                            ####                                     
                                            #####                                    
                                            ######                                   
                                           ########,                                 
                                     ,,################,,,,,                         
                               ,,#################################,,                 
                          ,,##########################################,,             
                       ,#########################################, ''#####,          
                    ,#############################################,,   '####,        
                  ,##################################################,,,,####,       
                ,###########''''           ''''###############################       
              ,#####''   ,,,,##########,,,,          '''####'''          '####       
            ,##' ,,,,###########################,,,                        '##       
           ' ,,###''''                  '''############,,,                           
         ,,##''                                '''############,,,,        ,,,,,,###''
      ,#''                                            '''#######################'''  
     '                                                          ''''####''''         
             ,#######,   #######,   ,#######,      ##                                
            ,#'     '#,  ##    ##  ,#'     '#,    #''#        ,####,    ,#,          
            ##       ##  ##   ,#'  ##            #'  '#       #'       ,# #          
            ##       ##  #######   ##           ,######,      #####,      #          
            '#,     ,#'  ##    ##  '#,     ,#' ,#      #,     #,   #      #          
             '#######'   ##     ##  '#######'  #'      '#     '####' #    #          



                #########################################################
                #                        -***-                          #
                #          Department of theory and spectroscopy        #
                #                                                       #
                #                      Frank Neese                      #
                #                                                       #
                #     Directorship, Architecture, Infrastructure        #
                #                    SHARK, DRIVERS                     #
                #        Core code/Algorithms in most modules           #
                #                                                       #
                #        Max Planck Institute fuer Kohlenforschung      #
                #                Kaiser Wilhelm Platz 1                 #
                #                 D-45470 Muelheim/Ruhr                 #
                #                      Germany                          #
                #                                                       #
                #                  All rights reserved                  #
                #                        -***-                          #
                #########################################################


                         Program Version 6.1.0  -  RELEASE   -
                                (GIT: $679e74b$)
                          ($2025-06-10 18:02:51 +0200$)


 With contributions from (in alphabetic order):
[Max-Planck-Institut fuer Kohlenforschung]                               
  Daniel Aravena         : Magnetic Suceptibility                        
  Michael Atanasov       : Ab Initio Ligand Field Theory (pilot matlab implementation)
  Alexander A. Auer      : GIAO ZORA, VPT2 properties, NMR spectrum      
  Ute Becker             : All parallelization in ORCA, NUMFREQ, NUMCALC 
  Giovanni Bistoni       : ED, misc. LED, open-shell LED, HFLD           
  Dmytro Bykov           : pre 5.0 version of the SCF Hessian            
  Marcos Casanova-Páez   : Triplet and SCS-CIS(D). UHF-(DLPNO)-IP/EA/STEOM-CCSD. UHF-CVS-IP/STEOM-CCSD   
  Vijay G. Chilkuri      : MRCI spin determinant printing, contributions to CSF-ICE 
  Pauline Colinet        : FMM embedding                                 
  Dipayan Datta          : RHF DLPNO-CCSD density                        
  Achintya Kumar Dutta   : EOM-CC, STEOM-CC                              
  Nicolas Foglia         : Exact transition moments, OPA infrastructure, MCD improvements    
  Dmitry Ganyushin       : Spin-Orbit,Spin-Spin,Magnetic field MRCI      
  Miquel Garcia-Rates    : C-PCM and meta-GGA Hessian, CCSD/C-PCM, Gaussian charge scheme 
  Tiago L. C. Gouveia    : GS-ROHF, GS-ROCIS                             
  Yang Guo               : DLPNO-NEVPT2, F12-NEVPT2, CIM, IAO-localization        
  Andreas Hansen         : Spin unrestricted coupled pair/coupled cluster methods 
  Ingolf Harden          : AUTO-CI MPn and infrastructure                
  Benjamin Helmich-Paris : MC-RPA, TRAH-(SCF,CASSCF), AVAS, COSX integrals, SCF dyn. polar., MC-PDFT, srDFT 
  Lee Huntington         : MR-EOM, pCC                                   
  Robert Izsak           : Overlap fitted RIJCOSX, COSX-SCS-MP3, EOM     
  Riya Kayal             : Wick's Theorem for AUTO-CI, AUTO-CI UHF-CCSDT 
  Emily Kempfer          : AUTO-CI RHF CISDT and CCSDT, approximate NEVPT4
  Christian Kollmar      : KDIIS, OOCD, Brueckner-CCSD(T), CCSD density, CASPT2, CASPT2-K, improved NEVPT2 
  Axel Koslowski         : Symmetry handling                             
  Simone Kossmann        : meta-GGA functionals, TD-DFT gradient, OOMP2, (MP2 Hessian; deprecated post 5.0) 
  Lucas Lang             : DCDCAS, Hyperfine gauge corrections, ICE-SOC+SSC
  Marvin Lechner         : AUTO-CI (C++ implementation), FIC-MRCC        
  Spencer Leger          : CASSCF response                               
  Dagmar Lenk            : GEPOL surface, SMD, ORCA-2-JSON               
  Dimitrios Liakos       : Extrapolation schemes; Compound Job, Property file
  Dimitrios Manganas     : Further ROCIS development; embedding schemes. LFT, Crystal Embedding 
  Dimitrios Pantazis     : SARC Basis sets                               
  Anastasios Papadopoulos: AUTO-CI, single reference methods and gradients 
  Taras Petrenko         : pre 6.0 DFT Hessian and TD-DFT gradient,  ECA, NRVS 
  Petra Pikulova         : Analytic Raman intensities                    
  Peter Pinski           : DLPNO-MP2, DLPNO-MP2 Gradient                 
  Shashank Vittal Rao    : ES-AILFT, MagRelax                            
  Christoph Reimann      : Effective Core Potentials                     
  Marius Retegan         : Local ZFS, SOC                                
  Christoph Riplinger    : Optimizer, TS searches, QM/MM, DLPNO-CCSD(T), (RO)-DLPNO pert. Triples 
  Michael Roemelt        : Original ROCIS implementation, recursive CI coupling coefficients
  Masaaki Saitow         : Open-shell DLPNO-CCSD energy and density      
  Barbara Sandhoefer     : DKH picture change effects                    
  Yorick L. A. Schmerwitz: GMF and freeze-and-release deltaSCF, NEB S-IDPP initial path                    
  Kantharuban Sivalingam : CASSCF convergence/infrastructure, NEVPT2, NEVPT3, NEVPT4(SD), FIC-MRCI and CEPA variants
  Bernardo de Souza      : ESD, SOC TD-DFT                               
  Georgi L. Stoychev     : AutoAux, RI-MP2 NMR, DLPNO-MP2 response, X2C  
  Van Anh Tran           : RI-MP2 g-tensors                              
  Willem Van den Heuvel  : Paramagnetic NMR                              
  Zikuan Wang            : NOTCH, Electric field optimization            
  Frank Wennmohs         : Technical directorship and infrastructure     
  Hang Xu                : AUTO-CI-Response properties                   
                                                                         
[FACCTs GmbH]                                                            
  Markus Bursch, Nicolas Foglia, Miquel Garcia-Rates, Ingolf Harden, Hagen Neugebauer, Anastasios Papadopoulos, 
  Christoph Riplinger, Bernardo de Souza, Georgi L. Stoychev                                                    
                                                                 
  APM, various basis sets, CI-OPT, improved COSX, DLPNO-Multilevel,           
  DOCKER, DRACO, updates on ESD, Fragmentator, GOAT, IRC, LR-CPCM, L-BFGS, MBIS, meta-GGA TD-DFT gradient, ML-optimized integration grids, 
  MM, NACMEs, nearIR, NEB, NEB-TS, NL-DFT gradient (VV10), 2- and 3-layer-ONIOM, interface openCOSMO-RS, QMMM,   
  Crystal-QMMM, RESP, rigid body optimization, SF, symmetry and pop. for TD-DFT, various functionals, SOLVATOR                                   
                                                                         
[Other institutions]                                                     
  V. Asgeirsson          : NEB                                           
  Christoph Bannwarth    : sTDA-DFT, sTD-DFT, PBEh-3c, B97-3c, D3        
  Giovanni Bistoni       : ETS/NOCV, ADLD/ADEX, COVALED                  
  Martin Brehm           : Molecular dynamics                            
  Ronald Cardenas        : ETS/NOCV                                      
  Martina Colucci        : COVALED                                       
  Sebastian Ehlert       : rSCAN, r2SCAN, r2SCAN-3c, D4, dhf basis sets  
  Marvin Friede          : D4 for Fr, Ra, Ac-Lr                          
  Lars Goerigk           : TD-DFT with DH, B97 family of functionals     
  Stefan Grimme          : VdW corrections, initial TS optimization, DFT functionals, gCP, sTDA/sTD-DF 
  Waldemar Hujo          : DFT-NL                                        
  H. Jonsson             : NEB                                           
  Holger Kruse           : gCP                                           
  Marcel Mueller         : wB97X-3c, vDZP basis set                      
  Hagen Neugebauer       : wr2SCAN, Native XTB                           
  Gianluca Regni         : ADLD/ADEX                                     
  Tobias Risthaus        : pre 6.0 range-separated hybrid DFT and stability analysis
  Lukas Wittmann         : regularized MP2, r2SCAN double-hybrids, wr2SCAN        
                                                                         
We gratefully acknowledge several colleagues who have allowed us to      
interface, adapt or use parts of their codes:                            
  Ed Valeev, F. Pavosevic, A. Kumar             : LibInt (2-el integral package), F12 methods 
  Garnet Chan, S. Sharma, J. Yang, R. Olivares  : DMRG                   
  Ulf Ekstrom                                   : XCFun DFT Library      
  Mihaly Kallay                                 : mrcc  (arbitrary order and MRCC methods)
  Frank Weinhold                                : gennbo (NPA and NBO analysis)           
  Simon Mueller                                 : openCOSMO-RS                            
  Christopher J. Cramer and Donald G. Truhlar   : smd solvation model                     
  S Lehtola, MJT Oliveira, MAL Marques          : LibXC Library                           
  Liviu Ungur et al                             : ANISO software                          


 Your calculation uses the libint2 library for the computation of 2-el integrals
 For citations please refer to: http://libint.valeyev.net

 Your ORCA version has been built with support for libXC version: 7.0.0
 For citations please refer to: https://libxc.gitlab.io

 This ORCA versions uses:
   CBLAS   interface :  Fast vector & matrix operations
   LAPACKE interface :  Fast linear algebra routines
   SCALAPACK package :  Parallel linear algebra routines
   Shared memory     :  Shared parallel matrices
   BLAS/LAPACK       :  OpenBLAS 0.3.29  USE64BITINT DYNAMIC_ARCH NO_AFFINITY Zen SINGLE_THREADED
        Core in use  :  Zen
   Copyright (c) 2011-2014, The OpenBLAS Project


  ***********************************
  * Starting time: Wed Sep 10 13:31:19 2025
  * Host name:     wyk-Server
  * Process ID:    2266923
  * Working dir.:  /home/wyk/Documents/code/openQDC/MGMR/singlepointcalc/1/sp
  ***********************************

Your calculation utilizes the atom-pairwise dispersion correction
with the Becke-Johnson damping scheme (D3BJ)


Warning: RI is on but no J-basis has been assigned. Assigning Def2/J (nothing to worry about!)
================================================================================

----- Orbital basis set information -----
Your calculation utilizes the basis: def2-SVP
   F. Weigend and R. Ahlrichs, Phys. Chem. Chem. Phys. 7, 3297 (2005).

----- AuxJ basis set information -----
Your calculation utilizes the auxiliary basis: def2/J
   H-Rn: F. Weigend, Phys. Chem. Chem. Phys. 8, 1057 (2006).
   Fr-Lr: K. Eichkorn, F. Weigend, O. Treutler, R. Ahlrichs; Theor. Chem. Acc. 97, 119 (1997).

================================================================================
                                        WARNINGS
                       Please study these warnings very carefully!
================================================================================


================================================================================
                                       INPUT FILE
================================================================================
NAME = orca.inp
|  1> ! B3LYP def2-SVP d3 EnGrad 
|  2> %pal nprocs 6 end 
|  3> *xyz 0 1 
|  4> N   0.3733895436669 1.0282003351527 0.76724205772121
|  5> B   0.93939140995448 0.93545454378422 -0.55730914827358
|  6> N   -0.5599326332573 -1.67478743332043 0.18457492093425
|  7> B   -0.83171901881726 -0.37190332199605 -0.29501738323139
|  8> H   0.22855396196031 -2.22737874908028 -0.12633452119338
|  9> H   1.85478714152616 0.16773339680485 -0.73262494434039
| 10> H   0.7406334053873 1.83998882528264 -1.32997021604931
| 11> H   -0.20359028997753 1.80877639880497 1.0585502024152
| 12> H   0.70148041632447 0.46008561987364 1.53918707894511
| 13> H   -1.10621444217323 -2.11581569218559 0.91281772670785
| 14> H   -1.88097509645783 0.18281797206292 -0.08460203281773
| 15> H   -0.25580439813648 -0.03317189518359 -1.33651374081786
| 16> *
| 17> 
| 18>                          ****END OF INPUT****
================================================================================

                     *******************************
                     * Energy+Gradient Calculation *
                     *******************************

---------------------------------
CARTESIAN COORDINATES (ANGSTROEM)
---------------------------------
  N      0.373390    1.028200    0.767242
  B      0.939391    0.935455   -0.557309
  N     -0.559933   -1.674787    0.184575
  B     -0.831719   -0.371903   -0.295017
  H      0.228554   -2.227379   -0.126335
  H      1.854787    0.167733   -0.732625
  H      0.740633    1.839989   -1.329970
  H     -0.203590    1.808776    1.058550
  H      0.701480    0.460086    1.539187
  H     -1.106214   -2.115816    0.912818
  H     -1.880975    0.182818   -0.084602
  H     -0.255804   -0.033172   -1.336514

----------------------------
CARTESIAN COORDINATES (A.U.)
----------------------------
  NO LB      ZA    FRAG     MASS         X           Y           Z
   0 N     7.0000    0    14.007    0.705604    1.943017    1.449877
   1 B     5.0000    0    10.810    1.775192    1.767753   -1.053162
   2 N     7.0000    0    14.007   -1.058119   -3.164890    0.348796
   3 B     5.0000    0    10.810   -1.571721   -0.702795   -0.557502
   4 H     1.0000    0     1.008    0.431904   -4.209136   -0.238738
   5 H     1.0000    0     1.008    3.505040    0.316970   -1.384461
   6 H     1.0000    0     1.008    1.399594    3.477075   -2.513279
   7 H     1.0000    0     1.008   -0.384730    3.418092    2.000370
   8 H     1.0000    0     1.008    1.325606    0.869436    2.908642
   9 H     1.0000    0     1.008   -2.090442   -3.998312    1.724976
  10 H     1.0000    0     1.008   -3.554528    0.345476   -0.159875
  11 H     1.0000    0     1.008   -0.483400   -0.062686   -2.525645

--------------------------------
INTERNAL COORDINATES (ANGSTROEM)
--------------------------------
 N      0   0   0     0.000000000000     0.00000000     0.00000000
 B      1   0   0     1.443397309046     0.00000000     0.00000000
 N      1   2   0     2.918344420171    83.26239903     0.00000000
 B      3   1   2     1.414702663153    43.62485841   292.43714853
 H      3   1   2     1.011796893796   108.54019117    51.56013972
 H      2   1   3     1.207510137949   118.12231681   291.43759848
 H      2   1   3     1.206106187880   118.36372773   130.69109139
 H      1   2   3     1.013442230591   122.44696097   231.14562555
 H      1   2   3     1.013063209395   122.42674543    67.06859258
 H      3   1   2     1.011566766967   115.64449956   180.87817967
 H      4   3   1     1.205374900285   122.13299070   249.74040680
 H      4   3   1     1.237388901150   116.61744944    98.38734235

---------------------------
INTERNAL COORDINATES (A.U.)
---------------------------
 N      0   0   0     0.000000000000     0.00000000     0.00000000
 B      1   0   0     2.727625616535     0.00000000     0.00000000
 N      1   2   0     5.514871718581    83.26239903     0.00000000
 B      3   1   2     2.673400594288    43.62485841   292.43714853
 H      3   1   2     1.912019032427   108.54019117    51.56013972
 H      2   1   3     2.281863464657   118.12231681   291.43759848
 H      2   1   3     2.279210383520   118.36372773   130.69109139
 H      1   2   3     1.915128268366   122.44696097   231.14562555
 H      1   2   3     1.914412022108   122.42674543    67.06859258
 H      3   1   2     1.911584155743   115.64449956   180.87817967
 H      4   3   1     2.277828450242   122.13299070   249.74040680
 H      4   3   1     2.338326144328   116.61744944    98.38734235

---------------------
BASIS SET INFORMATION
---------------------
There are 3 groups of distinct atoms

 Group   1 Type N   : 7s4p1d contracted to 3s2p1d pattern {511/31/1}
 Group   2 Type B   : 7s4p1d contracted to 3s2p1d pattern {511/31/1}
 Group   3 Type H   : 4s1p contracted to 2s1p pattern {31/1}

Atom   0N    basis set group =>   1
Atom   1B    basis set group =>   2
Atom   2N    basis set group =>   1
Atom   3B    basis set group =>   2
Atom   4H    basis set group =>   3
Atom   5H    basis set group =>   3
Atom   6H    basis set group =>   3
Atom   7H    basis set group =>   3
Atom   8H    basis set group =>   3
Atom   9H    basis set group =>   3
Atom  10H    basis set group =>   3
Atom  11H    basis set group =>   3
---------------------------------
AUXILIARY/J BASIS SET INFORMATION
---------------------------------
There are 3 groups of distinct atoms

 Group   1 Type N   : 12s5p4d2f1g contracted to 6s4p3d1f1g pattern {711111/2111/211/2/1}
 Group   2 Type B   : 12s5p4d2f1g contracted to 6s4p3d1f1g pattern {711111/2111/211/2/1}
 Group   3 Type H   : 5s2p1d contracted to 3s1p1d pattern {311/2/1}

Atom   0N    basis set group =>   1
Atom   1B    basis set group =>   2
Atom   2N    basis set group =>   1
Atom   3B    basis set group =>   2
Atom   4H    basis set group =>   3
Atom   5H    basis set group =>   3
Atom   6H    basis set group =>   3
Atom   7H    basis set group =>   3
Atom   8H    basis set group =>   3
Atom   9H    basis set group =>   3
Atom  10H    basis set group =>   3
Atom  11H    basis set group =>   3


           ************************************************************
           *        Program running with 6 parallel MPI-processes     *
           *              working on a common directory               *
           ************************************************************
------------------------------------------------------------------------------
                             ORCA STARTUP CALCULATIONS
                           -- RI-GTO INTEGRALS CHOSEN --
------------------------------------------------------------------------------
------------------------------------------------------------------------------
                   ___                                                        
                  /   \      - P O W E R E D   B Y -                         
                 /     \                                                     
                 |  |  |   _    _      __       _____    __    __             
                 |  |  |  | |  | |    /  \     |  _  \  |  |  /  |          
                  \  \/   | |  | |   /    \    | | | |  |  | /  /          
                 / \  \   | |__| |  /  /\  \   | |_| |  |  |/  /          
                |  |  |   |  __  | /  /__\  \  |    /   |      \           
                |  |  |   | |  | | |   __   |  |    \   |  |\   \          
                \     /   | |  | | |  |  |  |  | |\  \  |  | \   \       
                 \___/    |_|  |_| |__|  |__|  |_| \__\ |__|  \__/        
                                                                              
                      - O R C A' S   B I G   F R I E N D -                    
                                      &                                       
                       - I N T E G R A L  F E E D E R -                       
                                                                              
 v1 FN, 2020, v2 2021, v3 2022-2024                                           
------------------------------------------------------------------------------


----------------------
SHARK INTEGRAL PACKAGE
----------------------

Number of atoms                             ...     12
Number of basis functions                   ...     96
Number of shells                            ...     48
Maximum angular momentum                    ...      2
Integral batch strategy                     ... SHARK/LIBINT Hybrid
RI-J (if used) integral strategy            ... SPLIT-RIJ (Revised 2003 algorithm where possible)
Printlevel                                  ...      1
Contraction scheme used                     ... SEGMENTED contraction
Prescreening option                         ... SCHWARTZ
   Thresh                                   ... 2.500e-11
   Tcut                                     ... 2.500e-12
   Tpresel                                  ... 2.500e-12 
Coulomb Range Separation                    ... NOT USED
Exchange Range Separation                   ... NOT USED
Multipole approximations                    ... NOT USED
Finite Nucleus Model                        ... NOT USED
CABS basis                                  ... NOT available
Auxiliary Coulomb fitting basis             ... AVAILABLE
   # of basis functions in Aux-J            ...    284
   # of shells in Aux-J                     ...    100
   Maximum angular momentum in Aux-J        ...      4
Auxiliary J/K fitting basis                 ... NOT available
Auxiliary Correlation fitting basis         ... NOT available
Auxiliary 'external' fitting basis          ... NOT available

Checking pre-screening integrals            ... done (  0.0 sec) Dimension = 48
   => SHARK Basis and OBASIS are compatible. Storing Pre-screening
Shell pair information
Shell pair cut-off parameter TPreSel        ...   2.5e-12
Total number of shell pairs                 ...      1176
Shell pairs after pre-screening             ...      1167
Total number of primitive shell pairs       ...      3992
Primitive shell pairs kept                  ...      3262
          la=0 lb=0:    403 shell pairs
          la=1 lb=0:    443 shell pairs
          la=1 lb=1:    135 shell pairs
          la=2 lb=0:    112 shell pairs
          la=2 lb=1:     64 shell pairs
          la=2 lb=2:     10 shell pairs

Checking whether 4 symmetric matrices of dimension 96 fit in memory
:Max Core in MB      =   4096.00
 MB in use           =      4.77
 MB left             =   4091.23
 MB needed           =      0.14
 Data fit in memory  = YES
Calculating RI/J V-Matrix + Cholesky decomp.... done (  0.0 sec)
Calculating Nuclear repulsion               ... done (  0.0 sec) ENN=    112.845191150414 Eh

Diagonalization of the overlap matrix:
Smallest eigenvalue                        ... 5.240e-03
Time for diagonalization                   ...    0.001 sec
Threshold for overlap eigenvalues          ... 1.000e-07
Number of eigenvalues below threshold      ... 0
Time for construction of square roots      ...    0.000 sec
Total time needed                          ...    0.002 sec

-------------------
DFT GRID GENERATION
-------------------

General Integration Accuracy     IntAcc      ... 4.388
Radial Grid Type                 RadialGrid  ... OptM3 with GC (2021)
Angular Grid (max. ang.)         AngularGrid ... 4 (Lebedev-302)
Angular grid pruning method      GridPruning ... 4 (adaptive)
Weight generation scheme         WeightScheme... mBecke (2022)
Basis function cutoff            BFCut       ... 1.0000e-11
Integration weight cutoff        WCut        ... 1.0000e-14
Partially contracted basis set               ... off
Rotationally invariant grid construction     ... off
Angular grids for H and He will be reduced by one unit

Total number of grid points                  ...    50062
Total number of batches                      ...      787
Average number of points per batch           ...       63
Average number of grid points per atom       ...     4172

--------------------
COSX GRID GENERATION
--------------------

GRIDX 1
-------
General Integration Accuracy     IntAcc      ... 3.816
Radial Grid Type                 RadialGrid  ... OptM3 with GC (2021)
Angular Grid (max. ang.)         AngularGrid ... 1 (Lebedev-50)
Angular grid pruning method      GridPruning ... 4 (adaptive)
Weight generation scheme         WeightScheme... mBecke (2022)
Basis function cutoff            BFCut       ... 1.0000e-11
Integration weight cutoff        WCut        ... 1.0000e-14
Partially contracted basis set               ... on
Rotationally invariant grid construction     ... off
Angular grids for H and He will be reduced by one unit

Total number of grid points                  ...     6470
Total number of batches                      ...       58
Average number of points per batch           ...      111
Average number of grid points per atom       ...      539
UseSFitting                                  ... on

GRIDX 2
-------
General Integration Accuracy     IntAcc      ... 4.020
Radial Grid Type                 RadialGrid  ... OptM3 with GC (2021)
Angular Grid (max. ang.)         AngularGrid ... 2 (Lebedev-110)
Angular grid pruning method      GridPruning ... 4 (adaptive)
Weight generation scheme         WeightScheme... mBecke (2022)
Basis function cutoff            BFCut       ... 1.0000e-11
Integration weight cutoff        WCut        ... 1.0000e-14
Partially contracted basis set               ... on
Rotationally invariant grid construction     ... off
Angular grids for H and He will be reduced by one unit

Total number of grid points                  ...    13461
Total number of batches                      ...      113
Average number of points per batch           ...      119
Average number of grid points per atom       ...     1122
UseSFitting                                  ... on

GRIDX 3
-------
General Integration Accuracy     IntAcc      ... 4.338
Radial Grid Type                 RadialGrid  ... OptM3 with GC (2021)
Angular Grid (max. ang.)         AngularGrid ... 3 (Lebedev-194)
Angular grid pruning method      GridPruning ... 4 (adaptive)
Weight generation scheme         WeightScheme... mBecke (2022)
Basis function cutoff            BFCut       ... 1.0000e-11
Integration weight cutoff        WCut        ... 1.0000e-14
Partially contracted basis set               ... on
Rotationally invariant grid construction     ... off
Angular grids for H and He will be reduced by one unit

Total number of grid points                  ...    29498
Total number of batches                      ...      236
Average number of points per batch           ...      124
Average number of grid points per atom       ...     2458
UseSFitting                                  ... on
Grids setup in   0.4 sec
Initializing property integral containers    ... done (  0.0 sec)

SHARK setup successfully completed in   0.4 seconds

Maximum memory used throughout the entire STARTUP-calculation: 14.0 MB


           ************************************************************
           *        Program running with 6 parallel MPI-processes     *
           *              working on a common directory               *
           ************************************************************
-------------------------------------------------------------------------------
                                 ORCA GUESS
                   Start orbitals & Density for SCF / CASSCF
-------------------------------------------------------------------------------

------------
SCF SETTINGS
------------
Hamiltonian:
 Density Functional     Method          .... DFT(GTOs)
 Exchange Functional    Exchange        .... B88
   X-Alpha parameter    XAlpha          ....  0.666667
   Becke's b parameter  XBeta           ....  0.004200
 Correlation Functional Correlation     .... LYP
 LDA part of GGA corr.  LDAOpt          .... VWN-5
 Gradients option       PostSCFGGA      .... off
 Hybrid DFT is turned on
   Fraction HF Exchange ScalHFX         ....  0.200000
   Scaling of DF-GGA-X  ScalDFX         ....  0.720000
   Scaling of DF-GGA-C  ScalDFC         ....  0.810000
   Scaling of DF-LDA-C  ScalLDAC        ....  1.000000
   Perturbative correction              ....  0.000000
   NL short-range parameter             ....  4.800000
 RI-approximation to the Coulomb term is turned on
   Number of AuxJ basis functions       .... 284
   RIJ-COSX (HFX calculated with COS-X)).... on


General Settings:
 Integral files         IntName         .... orca
 Hartree-Fock type      HFTyp           .... RHF
 Total Charge           Charge          ....    0
 Multiplicity           Mult            ....    1
 Number of Electrons    NEL             ....   32
 Basis Dimension        Dim             ....   96
 Nuclear Repulsion      ENuc            ....    112.8451911504 Eh

Convergence Acceleration:
 AO-DIIS                CNVDIIS         .... on
   Start iteration      DIISMaxIt       ....    12
   Startup error        DIISStart       ....  0.200000
   # of expansion vecs  DIISMaxEq       ....     5
   Bias factor          DIISBfac        ....   1.050
   Max. coefficient     DIISMaxC        ....  10.000
 MO-DIIS                CNVKDIIS        .... off
 Trust-Rad. Augm. Hess. CNVTRAH         .... auto
   Auto Start mean grad. ratio tolernc. ....  1.125000
   Auto Start start iteration           ....    50
   Auto Start num. interpolation iter.  ....    10
   Max. Number of Micro iterations      ....    24
   Max. Number of Macro iterations      .... Maxiter - #DIIS iter
   Number of Davidson start vectors     ....     2
   Converg. threshold    (grad. norm)   ....   1.000e-05
   Grad. Scal. Fac. for Micro threshold ....   0.100
   Minimum threshold for Micro iter.    ....   1.000e-02
   NR start threshold (gradient norm)   ....   1.000e-04
   Initial trust radius                 ....   0.400
   Minimum AH scaling param. (alpha)    ....   1.000
   Maximum AH scaling param. (alpha)    .... 1000.000
   Quad. conv. algorithm                .... NR
   White noise on init. David. guess    .... on
   Maximum white noise                  ....   0.010
   Pseudo random numbers                .... off
   Inactive MOs                         .... canonical
   Orbital update algorithm             .... Taylor
   Preconditioner                       .... Diag
   Full preconditioner red. dimension   ....   250
 SOSCF                 CNVSOSCF           .... on
   Start iteration     SOSCFMaxIt         ....   150
   Startup grad/error  SOSCFStart         ....  0.003300
   Hessian update      SOSCFHessUp        .... L-BFGS
   Autom. constraints  SOSCFAutoConstrain .... off
 Level Shifting         CNVShift        .... on
   Level shift para.    LevelShift      ....    0.2500
   Turn off err/grad.   ShiftErr        ....    0.0010
 Zerner damping         CNVZerner       .... off
 Static damping         CNVDamp         .... on
   Fraction old density DampFac         ....    0.7000
   Max. Damping (<1)    DampMax         ....    0.9800
   Min. Damping (>=0)   DampMin         ....    0.0000
   Turn off err/grad.   DampErr         ....    0.1000

SCF Procedure:
 Maximum # iterations   MaxIter         ....   125
 SCF integral mode      SCFMode         .... Direct
   Integral package                     .... SHARK and LIBINT hybrid scheme
 Reset frequency        DirectResetFreq ....    20
 Integral Threshold     Thresh          ....  2.500e-11 Eh
 Primitive CutOff       TCut            ....  2.500e-12 Eh

Convergence Tolerance:
 Convergence Check Mode ConvCheckMode   .... Total+1el-Energy
 Convergence forced     ConvForced      .... 0
 Energy Change          TolE            ....  1.000e-08 Eh
 1-El. energy change                    ....  1.000e-05 Eh
 Orbital Gradient       TolG            ....  1.000e-05
 Orbital Rotation angle TolX            ....  1.000e-05
 DIIS Error             TolErr          ....  5.000e-07

------------------------------
INITIAL GUESS: MODEL POTENTIAL
------------------------------
Loading Hartree-Fock densities                     ... done
Calculating cut-offs                               ... done
Initializing the effective Hamiltonian             ... done
Setting up the integral package (SHARK)            ... done
Starting the Coulomb interaction                   ... done (   0.0 sec)
Making the grid                                    ... done (   0.1 sec)
Mapping shells                                     ... done
Starting the XC term evaluation                    ... done (   0.0 sec)
  promolecular density results
     # of electrons  =     31.995222161
     EX              =    -23.143714557
     EC              =     -0.999431653
     EX+EC           =    -24.143146210
Transforming the Hamiltonian                       ... done (   0.0 sec)
Diagonalizing the Hamiltonian                      ... done (   0.0 sec)
Back transforming the eigenvectors                 ... done (   0.0 sec)
Now organizing SCF variables                       ... done
                      ------------------
                      INITIAL GUESS DONE (   0.1 sec)
                      ------------------
             **** ENERGY FILE WAS UPDATED (orca.en.tmp) ****
Finished Guess after   0.2 sec
Maximum memory used throughout the entire GUESS-calculation: 7.1 MB


           ************************************************************
           *        Program running with 6 parallel MPI-processes     *
           *              working on a common directory               *
           ************************************************************

-------------------------------------------------------------------------------------------
                                      ORCA LEAN-SCF
                              memory conserving SCF solver
-------------------------------------------------------------------------------------------

----------------------------------------D-I-I-S--------------------------------------------
Iteration    Energy (Eh)           Delta-E    RMSDP     MaxDP     DIISErr   Damp  Time(sec)
-------------------------------------------------------------------------------------------
               ***  Starting incremental Fock matrix formation  ***
    1    -163.6131127637213467     0.00e+00  1.33e-02  9.90e-02  2.88e-01  0.700   0.2
    2    -163.7184928784130875    -1.05e-01  9.32e-03  5.51e-02  1.31e-01  0.700   0.2
                               ***Turning on AO-DIIS***
    3    -163.7586950387158709    -4.02e-02  3.63e-03  2.12e-02  3.80e-02  0.700   0.2
    4    -163.7828780913430364    -2.42e-02  5.68e-03  3.16e-02  1.71e-02  0.000   0.2
    5    -163.8363466615039670    -5.35e-02  1.28e-03  7.48e-03  5.25e-03  0.000   0.2
                              *** Initializing SOSCF ***
---------------------------------------S-O-S-C-F--------------------------------------
Iteration    Energy (Eh)           Delta-E    RMSDP     MaxDP     MaxGrad    Time(sec)
--------------------------------------------------------------------------------------
    6    -163.8366635504027613    -3.17e-04  3.66e-04  1.75e-03  1.57e-03     0.2
               *** Restarting incremental Fock matrix formation ***
    7    -163.8367037487199127    -4.02e-05  2.21e-04  9.23e-04  2.19e-04     0.2
    8    -163.8367052457106183    -1.50e-06  5.83e-05  3.81e-04  1.32e-04     0.2
    9    -163.8367058242268399    -5.79e-07  3.73e-05  1.81e-04  5.32e-05     0.2
   10    -163.8367058434704973    -1.92e-08  1.59e-05  1.08e-04  5.52e-05     0.2
   11    -163.8367059022634180    -5.88e-08  5.56e-06  3.17e-05  9.86e-06     0.2
   12    -163.8367059059613098    -3.70e-09  1.61e-06  8.38e-06  2.67e-06     0.2
                 **** Energy Check signals convergence ****

               *****************************************************
               *                     SUCCESS                       *
               *           SCF CONVERGED AFTER  12 CYCLES          *
               *****************************************************

Recomputing exchange energy using gridx3       ... done (    0.289 sec)
Old exchange energy                            :     -4.763234698 Eh
New exchange energy                            :     -4.763194027 Eh
Exchange energy change after final integration :      0.000040671 Eh
Total energy after final integration           :   -163.836665235 Eh
             **** ENERGY FILE WAS UPDATED (orca.en.tmp) ****

----------------
TOTAL SCF ENERGY
----------------

Total Energy       :       -163.83666523479033 Eh           -4458.22231 eV

Components:
Nuclear Repulsion  :        112.84519115041411 Eh            3070.67376 eV
Electronic Energy  :       -276.68189705661490 Eh           -7528.89718 eV
One Electron Energy:       -443.27309534893988 Eh          -12062.07415 eV
Two Electron Energy:        166.59119829232498 Eh            4533.17697 eV

Virial components:
Potential Energy   :       -325.78128234880069 Eh           -8864.95938 eV
Kinetic Energy     :        161.94461711401033 Eh            4406.73707 eV
Virial Ratio       :          2.01168330355462

DFT components:
N(Alpha)           :       16.000020456146 electrons
N(Beta)            :       16.000020456146 electrons
N(Total)           :       32.000040912292 electrons
E(X)               :      -18.872320310320 Eh       
E(C)               :       -1.196930514943 Eh       
E(XC)              :      -20.069250825263 Eh       

---------------
SCF CONVERGENCE
---------------

  Last Energy change         ...    3.6979e-09  Tolerance :   1.0000e-08
  Last MAX-Density change    ...    8.3783e-06  Tolerance :   1.0000e-07
  Last RMS-Density change    ...    1.6098e-06  Tolerance :   5.0000e-09
  Last DIIS Error            ...    1.5654e-03  Tolerance :   5.0000e-07
  Last Orbital Gradient      ...    2.6677e-06  Tolerance :   1.0000e-05
  Last Orbital Rotation      ...    3.4387e-06  Tolerance :   1.0000e-05


----------------
ORBITAL ENERGIES
----------------

  NO   OCC          E(Eh)            E(eV) 
   0   2.0000     -14.329038      -389.9129 
   1   2.0000     -14.301191      -389.1552 
   2   2.0000      -6.751731      -183.7239 
   3   2.0000      -6.750143      -183.6807 
   4   2.0000      -0.860639       -23.4192 
   5   2.0000      -0.830778       -22.6066 
   6   2.0000      -0.551654       -15.0113 
   7   2.0000      -0.509926       -13.8758 
   8   2.0000      -0.495454       -13.4820 
   9   2.0000      -0.485724       -13.2172 
  10   2.0000      -0.402439       -10.9509 
  11   2.0000      -0.389775       -10.6063 
  12   2.0000      -0.324642        -8.8340 
  13   2.0000      -0.313423        -8.5287 
  14   2.0000      -0.307738        -8.3740 
  15   2.0000      -0.239329        -6.5125 
  16   0.0000       0.036915         1.0045 
  17   0.0000       0.053121         1.4455 
  18   0.0000       0.064865         1.7651 
  19   0.0000       0.091827         2.4987 
  20   0.0000       0.108793         2.9604 
  21   0.0000       0.124572         3.3898 
  22   0.0000       0.148263         4.0345 
  23   0.0000       0.196009         5.3337 
  24   0.0000       0.207091         5.6352 
  25   0.0000       0.209880         5.7111 
  26   0.0000       0.222001         6.0410 
*Only the first 10 virtual orbitals were printed.

                    ********************************
                    * MULLIKEN POPULATION ANALYSIS *
                    ********************************

-----------------------
MULLIKEN ATOMIC CHARGES
-----------------------
   0 N :   -0.078827
   1 B :   -0.024895
   2 N :   -0.095222
   3 B :   -0.077091
   4 H :    0.111952
   5 H :   -0.056271
   6 H :   -0.048929
   7 H :    0.127451
   8 H :    0.120847
   9 H :    0.106839
  10 H :   -0.049796
  11 H :   -0.036057
Sum of atomic charges:    0.0000000

--------------------------------
MULLIKEN REDUCED ORBITAL CHARGES
--------------------------------
  0 N s       :     3.325599  s :     3.325599
      pz      :     1.128490  p :     3.741190
      px      :     1.382604
      py      :     1.230097
      dz2     :     0.002663  d :     0.012038
      dxz     :     0.002342
      dyz     :     0.004336
      dx2y2   :     0.000550
      dxy     :     0.002148

  1 B s       :     2.943052  s :     2.943052
      pz      :     0.706182  p :     2.004169
      px      :     0.576072
      py      :     0.721915
      dz2     :     0.024038  d :     0.077674
      dxz     :     0.020153
      dyz     :     0.017898
      dx2y2   :     0.004336
      dxy     :     0.011249

  2 N s       :     3.287193  s :     3.287193
      pz      :     1.357301  p :     3.796988
      px      :     1.242759
      py      :     1.196928
      dz2     :     0.001505  d :     0.011041
      dxz     :     0.001589
      dyz     :     0.002645
      dx2y2   :     0.001453
      dxy     :     0.003850

  3 B s       :     2.910686  s :     2.910686
      pz      :     0.657576  p :     2.081785
      px      :     0.745099
      py      :     0.679109
      dz2     :     0.011021  d :     0.084620
      dxz     :     0.009907
      dyz     :     0.020129
      dx2y2   :     0.020584
      dxy     :     0.022979

  4 H s       :     0.840738  s :     0.840738
      pz      :     0.013225  p :     0.047310
      px      :     0.019275
      py      :     0.014810

  5 H s       :     1.044156  s :     1.044156
      pz      :     0.001104  p :     0.012116
      px      :     0.006329
      py      :     0.004682

  6 H s       :     1.036607  s :     1.036607
      pz      :     0.004824  p :     0.012322
      px      :     0.001313
      py      :     0.006185

  7 H s       :     0.826206  s :     0.826206
      pz      :     0.010767  p :     0.046343
      px      :     0.016274
      py      :     0.019301

  8 H s       :     0.833018  s :     0.833018
      pz      :     0.017571  p :     0.046135
      px      :     0.013336
      py      :     0.015228

  9 H s       :     0.845933  s :     0.845933
      pz      :     0.018570  p :     0.047227
      px      :     0.015395
      py      :     0.013262

 10 H s       :     1.037471  s :     1.037471
      pz      :     0.001590  p :     0.012325
      px      :     0.008077
      py      :     0.002658

 11 H s       :     1.021547  s :     1.021547
      pz      :     0.008759  p :     0.014510
      px      :     0.003579
      py      :     0.002172



                     *******************************
                     * LOEWDIN POPULATION ANALYSIS *
                     *******************************

----------------------
LOEWDIN ATOMIC CHARGES
----------------------
   0 N :    0.062313
   1 B :   -0.142974
   2 N :   -0.007856
   3 B :   -0.138954
   4 H :    0.074049
   5 H :   -0.038130
   6 H :   -0.036835
   7 H :    0.085959
   8 H :    0.081565
   9 H :    0.073446
  10 H :   -0.042207
  11 H :    0.029624

-------------------------------
LOEWDIN REDUCED ORBITAL CHARGES
-------------------------------
  0 N s       :     3.034952  s :     3.034952
      pz      :     1.224696  p :     3.870573
      px      :     1.383751
      py      :     1.262126
      dz2     :     0.007316  d :     0.032162
      dxz     :     0.006584
      dyz     :     0.011817
      dx2y2   :     0.001217
      dxy     :     0.005229

  1 B s       :     2.742925  s :     2.742925
      pz      :     0.765652  p :     2.201956
      px      :     0.664903
      py      :     0.771401
      dz2     :     0.055359  d :     0.198093
      dxz     :     0.050486
      dyz     :     0.048910
      dx2y2   :     0.011864
      dxy     :     0.031473

  2 N s       :     3.024355  s :     3.024355
      pz      :     1.372393  p :     3.952230
      px      :     1.290325
      py      :     1.289512
      dz2     :     0.003975  d :     0.031271
      dxz     :     0.004423
      dyz     :     0.007295
      dx2y2   :     0.004613
      dxy     :     0.010966

  3 B s       :     2.716101  s :     2.716101
      pz      :     0.706878  p :     2.206709
      px      :     0.776073
      py      :     0.723758
      dz2     :     0.031575  d :     0.216143
      dxz     :     0.023582
      dyz     :     0.052240
      dx2y2   :     0.050009
      dxy     :     0.058738

  4 H s       :     0.804314  s :     0.804314
      pz      :     0.033168  p :     0.121638
      px      :     0.053015
      py      :     0.035454

  5 H s       :     1.007589  s :     1.007589
      pz      :     0.005443  p :     0.030541
      px      :     0.013935
      py      :     0.011162

  6 H s       :     1.005819  s :     1.005819
      pz      :     0.012173  p :     0.031016
      px      :     0.004340
      py      :     0.014503

  7 H s       :     0.793400  s :     0.793400
      pz      :     0.022436  p :     0.120641
      px      :     0.045059
      py      :     0.053146

  8 H s       :     0.796659  s :     0.796659
      pz      :     0.046794  p :     0.121776
      px      :     0.036288
      py      :     0.038694

  9 H s       :     0.805100  s :     0.805100
      pz      :     0.052687  p :     0.121454
      px      :     0.038574
      py      :     0.030193

 10 H s       :     1.010562  s :     1.010562
      pz      :     0.005641  p :     0.031645
      px      :     0.018210
      py      :     0.007794

 11 H s       :     0.931739  s :     0.931739
      pz      :     0.018453  p :     0.038637
      px      :     0.012111
      py      :     0.008073



                      *****************************
                      * MAYER POPULATION ANALYSIS *
                      *****************************

  NA   - Mulliken gross atomic population
  ZA   - Total nuclear charge
  QA   - Mulliken gross atomic charge
  VA   - Mayer's total valence
  BVA  - Mayer's bonded valence
  FA   - Mayer's free valence

  ATOM       NA         ZA         QA         VA         BVA        FA
  0 N      7.0788     7.0000    -0.0788     3.4708     3.4708     0.0000
  1 B      5.0249     5.0000    -0.0249     3.5540     3.5540     0.0000
  2 N      7.0952     7.0000    -0.0952     3.4101     3.4101     0.0000
  3 B      5.0771     5.0000    -0.0771     3.7583     3.7583    -0.0000
  4 H      0.8880     1.0000     0.1120     0.9965     0.9965    -0.0000
  5 H      1.0563     1.0000    -0.0563     0.9570     0.9570    -0.0000
  6 H      1.0489     1.0000    -0.0489     0.9594     0.9594     0.0000
  7 H      0.8725     1.0000     0.1275     0.9928     0.9928     0.0000
  8 H      0.8792     1.0000     0.1208     1.0081     1.0081     0.0000
  9 H      0.8932     1.0000     0.1068     0.9960     0.9960    -0.0000
 10 H      1.0498     1.0000    -0.0498     0.9579     0.9579    -0.0000
 11 H      1.0361     1.0000    -0.0361     0.9368     0.9368    -0.0000

  Mayer bond orders larger than 0.100000
B(  0-N ,  1-B ) :   1.2113 B(  0-N ,  3-B ) :   0.3411 B(  0-N ,  7-H ) :   0.9611 
B(  0-N ,  8-H ) :   0.9534 B(  1-B ,  3-B ) :   0.1975 B(  1-B ,  5-H ) :   0.9581 
B(  1-B ,  6-H ) :   0.9592 B(  1-B , 11-H ) :   0.1999 B(  2-N ,  3-B ) :   1.4675 
B(  2-N ,  4-H ) :   0.9546 B(  2-N ,  9-H ) :   0.9651 B(  3-B , 10-H ) :   0.9456 
B(  3-B , 11-H ) :   0.7380 

-------
TIMINGS
-------

Total SCF time: 0 days 0 hours 0 min 2 sec 

Total time                  ....       2.719 sec
Sum of individual times     ....       2.530 sec  ( 93.1%)

SCF preparation             ....       0.127 sec  (  4.7%)
Fock matrix formation       ....       2.290 sec  ( 84.2%)
  Startup                   ....       0.003 sec  (  0.1% of F)
  Split-RI-J                ....       0.166 sec  (  7.2% of F)
  Chain of spheres X        ....       1.666 sec  ( 72.7% of F)
  XC integration            ....       0.545 sec  ( 23.8% of F)
    Basis function eval.    ....       0.176 sec  ( 32.3% of XC)
    Density eval.           ....       0.083 sec  ( 15.1% of XC)
    XC-Functional eval.     ....       0.041 sec  (  7.5% of XC)
    XC-Potential eval.      ....       0.101 sec  ( 18.5% of XC)
Diagonalization             ....       0.000 sec  (  0.0%)
Density matrix formation    ....       0.016 sec  (  0.6%)
Total Energy calculation    ....       0.009 sec  (  0.3%)
Population analysis         ....       0.007 sec  (  0.3%)
Orbital Transformation      ....       0.008 sec  (  0.3%)
Orbital Orthonormalization  ....       0.000 sec  (  0.0%)
DIIS solution               ....       0.041 sec  (  1.5%)
SOSCF solution              ....       0.031 sec  (  1.2%)
Finished LeanSCF after   2.7 sec

Maximum memory used throughout the entire LEANSCF-calculation: 8.7 MB


-------------------------------------------------------------------------------
                          DFT DISPERSION CORRECTION                            
                                                                               
                              DFTD3 V3.1  Rev 1                                
                          USING Becke-Johnson damping                          
-------------------------------------------------------------------------------
The B3LYP functional is recognized
Active option DFTDOPT                   ...         4   

molecular C6(AA) [au] = 1095.380941 


            DFT-D V3
 parameters
 s6 scaling factor         :     1.0000 
 a1 scaling factor         :     0.3981 
 s8 scaling factor         :     1.9889 
 a2 scaling factor         :     4.4211 
 ad hoc parameters k1-k3   :    16.0000     1.3333    -4.0000 

 Edisp/kcal,au: -8.290403016445  -0.013211596756 
 E6   /kcal   :  -4.021184540 
 E8   /kcal   :  -4.269218476 
 % E8         :  51.495910004 

-------------------------   ----------------
Dispersion correction           -0.013211597
-------------------------   ----------------


-------------------------   --------------------
FINAL SINGLE POINT ENERGY      -163.849876831547
-------------------------   --------------------



           ************************************************************
           *        Program running with 6 parallel MPI-processes     *
           *              working on a common directory               *
           ************************************************************
------------------------------------------------------------------------------
                         ORCA SCF GRADIENT CALCULATION
------------------------------------------------------------------------------

Nuc. rep. gradient        (SHARK) ... done (  0.0 sec)
HCore & Overlap gradient  (SHARK) ... done (  0.0 sec)
Split-RIJ-J gradient      (SHARK) ... done (  0.1 sec)
done (  1.4 sec)
XC gradient                       ... done (  0.2 sec)
Dispersion correction             ... done (  0.0 sec)

-------------------
DISPERSION GRADIENT
-------------------

   1   N   :    0.000107687    0.000295260    0.000164553
   2   B   :    0.000237087    0.000272215   -0.000177578
   3   N   :   -0.000211525   -0.000503906    0.000025618
   4   B   :   -0.000195243   -0.000074335   -0.000091011
   5   H   :   -0.000009858   -0.000319866   -0.000002172
   6   H   :    0.000238136    0.000084476   -0.000109423
   7   H   :    0.000111537    0.000147836   -0.000135447
   8   H   :   -0.000004386    0.000209037    0.000166667
   9   H   :    0.000122519    0.000126179    0.000247081
  10   H   :   -0.000095767   -0.000228464    0.000075578
  11   H   :   -0.000260673   -0.000016839   -0.000042434
  12   H   :   -0.000039514    0.000008406   -0.000121432

Difference to translation invariance:
           :   -0.0000000000    0.0000000000    0.0000000000

Difference to rotation invariance:
           :    0.0000000000   -0.0000000000    0.0000000000

Norm of the Dispersion gradient    ...    0.0010893990
RMS gradient                       ...    0.0001815665
MAX gradient                       ...    0.0005039056

------------------
CARTESIAN GRADIENT
------------------

   1   N   :    0.000030439   -0.000079749   -0.000052745
   2   B   :    0.000068079    0.000122120    0.000082009
   3   N   :   -0.000055186   -0.000015570   -0.000123925
   4   B   :   -0.000042347   -0.000008601    0.000036142
   5   H   :    0.000002600    0.000021024    0.000016000
   6   H   :    0.000018928    0.000007450   -0.000016183
   7   H   :    0.000039898   -0.000040717    0.000017693
   8   H   :    0.000050569    0.000001305   -0.000010617
   9   H   :   -0.000049406    0.000087229   -0.000009275
  10   H   :    0.000007226   -0.000053685    0.000056141
  11   H   :   -0.000039315   -0.000007196    0.000035100
  12   H   :   -0.000031485   -0.000033612   -0.000030341

Difference to translation invariance:
           :   -0.0000000000   -0.0000000000    0.0000000000

Difference to rotation invariance:
           :    0.0000516499   -0.0000165552   -0.0001691943

Norm of the Cartesian gradient     ...    0.0002964272
RMS gradient                       ...    0.0000494045
MAX gradient                       ...    0.0001239251

-------
TIMINGS
-------

Total SCF gradient time     ....        1.773 sec

Densities                   ....       0.000 sec  (  0.0%)
One electron gradient       ....       0.016 sec  (  0.9%)
RI-J Coulomb gradient       ....       0.109 sec  (  6.1%)
COSX gradient               ....       1.368 sec  ( 77.2%)
XC gradient                 ....       0.250 sec  ( 14.1%)

Maximum memory used throughout the entire SCFGRAD-calculation: 27.0 MB


           ************************************************************
           *        Program running with 6 parallel MPI-processes     *
           *              working on a common directory               *
           ************************************************************

------------------------------------------------------------------------------
                              ORCA PROPERTY CALCULATIONS
------------------------------------------------------------------------------

GBWName                                 ... orca.gbw
Number of atoms                         ...     12
Number of basis functions               ...     96
Max core memory                         ...   4096 MB

Electric properties:
Dipole moment                           ... YES
Quadrupole moment                       ...  NO
Static polarizability (Dipole/Dipole)   ...  NO
Static polarizability (Dipole/Quad.)    ...  NO
Static polarizability (Quad./Quad.)     ...  NO
Static polarizability (Velocity)        ...  NO
Static hyperpolarizability              ...  NO

Atomic electric properties:
Dipole moment                           ...  NO
Quadrupole moment                       ...  NO
Static polarizability                   ...  NO

Choice of electric origin               ... Center of mass
Position of electric origin             ...    -0.044853    -0.094360     0.131603

General magnetic properties:
Magnetizability                         ...  NO

EPR properties:
g-Tensor (aka g-matrix)                 ...  NO
Zero-Field splitting spin-orbit         ...  NO
Zero-field splitting spin-spin          ...  NO
Hyperfine couplings                     ...  NO (   0 nuclei)
Quadrupole couplings                    ...  NO (   0 nuclei)
Contact density                         ...  NO (   0 nuclei)

NMR properties:
Chemical shifts                         ...  NO (   0 nuclei)
Spin-rotation constants                 ...  NO (   0 nuclei)
Spin-spin couplings                     ...  NO (   0 nuclei,    0 pairs)

Choice of magnetic origin               ... GIAO
Position of magnetic origin             ...     0.000000     0.000000     0.000000

Properties with geometric perturbations:
SCF Hessian                             ...  NO
IR spectrum                             ...  NO
VCD spectrum                            ...  NO
X-ray spectroscopy properties:
SCF XES/XAS/RIXS spectra                ...  NO

SCF SOC stabilization energy            ...  NO
Diagonal Born-Oppenheimer correction    ...  NO

-------------
DIPOLE MOMENT
-------------

Method             : SCF
Type of density    : Electron Density
Multiplicity       :   1
Irrep              :   0
Energy             :  -163.8366652347903312 Eh
Basis              : AO
                                X                 Y                 Z
Electronic contribution:     -0.132022283      -0.302007606       0.880607217
Nuclear contribution   :      0.134085151      -0.051871641       0.138089582
                        -----------------------------------------
Total Dipole Moment    :      0.002062868      -0.353879246       1.018696799
                        -----------------------------------------
Magnitude (a.u.)       :      1.078414552
Magnitude (Debye)      :      2.741111951



--------------------
Rotational spectrum 
--------------------
 
Rotational constants in cm-1:             0.465625             0.148751             0.138874 
Rotational constants in MHz :         13959.084634          4459.435626          4163.325738 

Dipole components along the rotational axes: 
x,y,z [a.u.] :    -0.317205    -0.905205    -0.492912 
x,y,z [Debye]:    -0.806270    -2.300849    -1.252883 

 

Dipole moment calculation done in   0.0 sec 

Maximum memory used throughout the entire PROP-calculation: 5.1 MB

--------------------------------
SUGGESTED CITATIONS FOR THIS RUN
--------------------------------

Below you find a list of papers that are relevant to this ORCA run
We neither can nor want to force you to cite these papers, but we appreciate if you do
You receive ORCA, which is the product of decades of hard work by many enthusiastic individuals, for free
The only thing we kindly ask in return is that you cite our papers,
We deeply appreciate it, if you show your appreciation for ORCA by not just citing the generic ORCA reference.

Please note that relegating all ORCA citations to the supporting information does *not* help us.
SI sections are not indexed - citations you put there will not count into any citation statistics
But we need these citations in order to attract the funding resources that allow us to do what we are doing

Therefore, if you are a happy ORCA user, please consider citing a few of the papers listed below in the main body of your paper

In addition to the list printed below, the program has created the file orca.bibtex that contains the list in bibtex format
You can import this file easily into all common literature databanks and citation aid programs


List of essential papers. We consider these as the minimum necessary citations

  1. Neese, F.
     Software update: the ORCA program system, version 6.0
     WIRES Comput. Molec. Sci. 2025 15(1), e70019
     doi.org/10.1002/wcms.7019

List of papers to cite with high priority. The work reported in these papers was absolutely
necessary for this run to complete.
Our perspective: the developers of density functionals and basis sets usually get cited in chemistry papers
Good! But without the algorithms to do something with them, the functionals or basis sets would not do anything.
Hence, in our opinion, the algorithm design and method developments papers are equally worthy of getting cited

  1. Neese, F.
     An improvement of the resolution of the identity approximation for the formation of the Coulomb matrix
     J. Comp. Chem. 2003 24(14), 1740-1747
     doi.org/10.1002/jcc.10318
  2. Neese, F.; Wennmohs, F.; Hansen, A.; Becker, U.
     Efficient, approximate and parallel Hartree-Fock and hybrid DFT calculations. A 'chain-of-spheres' algorithm for the Hartree-Fock exchange
     Chem. Phys. 2009 356(1-3), 98-109
     doi.org/10.1016/j.chemphys.2008.10.036
  3. Grimme, S.; Antony, J.; Ehrlich, S.; Krieg, H.
     A consistent and accurate ab initio parametrization of density functional dispersion correction (DFT-D) for the 94 elements H-Pu
     J. Chem. Phys. 2010 132 , 154104
     doi.org/10.1063/1.3382344
  4. Grimme, S.; Ehrlich, S.; Goerigk, L.
     Effect of the damping function in dispersion corrected density functional theory
     J. Comput. Chem. 2011 32(7), 1456-1465
     doi.org/10.1002/jcc.21759
  5. Helmich-Paris, B.; de Souza, B.; Neese, F.; Izsák, R.
     An improved chain of spheres for exchange algorithm
     J. Chem. Phys. 2021 155(10), 104109
     doi.org/10.1063/5.0058766
  6. Neese, F.
     The SHARK Integral Generation and Digestion System
     J. Comp. Chem. 2022 44(3), 381
     doi.org/10.1002/jcc.26942

List of suggested additional citations. These are papers that are important in the 'surrounding' of 
of this run, or papers that preceded the highly important papers. If you like your results we are grateful for a citation.

  1. Izsak, R.; Neese, F.
     An overlap fitted chain of spheres exchange method
     J. Chem. Phys. 2011 135 , 144105
     doi.org/10.1063/1.3646921
  2. Izsak, R.; Hansen, A.; Neese, F.
     The resolution of identity and chain of spheres approximations for the LPNO-CCSD singles Fock term
     Molec. Phys. 2012 110 , 2413-2417
     doi.org/10.1080/00268976.2012.687466
  3. Neese, F.
     The ORCA program system
     WIRES Comput. Molec. Sci. 2012 2(1), 73-78
     doi.org/10.1002/wcms.81
  4. Izsak, R.; Neese, F.; Klopper, W.
     Robust fitting techniques in the chain of spheres approximation to the Fock exchange: The role of the complementary space
     J. Chem. Phys. 2013 139 , 
     doi.org/10.1063/1.4819264
  5. Neese, F.
     Software update: the ORCA program system, version 4.0
     WIRES Comput. Molec. Sci. 2018 8(1), 1-6
     doi.org/10.1002/wcms.1327
  6. Neese, F.; Wennmohs, F.; Becker, U.; Riplinger, C.
     The ORCA quantum chemistry program package
     J. Chem. Phys. 2020 152(22), 224108
     doi.org/10.1063/5.0004608
  7. Neese, F.
     Software update: The ORCA program system—Version 5.0
     WIRES Comput. Molec. Sci. 2022 12(1), e1606
     doi.org/10.1002/wcms.1606

List of optional additional citations

  1. Neese, F.
     Approximate second-order SCF convergence for spin unrestricted wavefunctions
     Chem. Phys. Lett. 2000 325(1-3), 93-98
     doi.org/10.1016/s0009-2614(00)00662-x

Timings for individual modules:

Sum of individual times          ...        7.458 sec (=   0.124 min)
Startup calculation              ...        0.921 sec (=   0.015 min)  12.3 %
SCF iterations                   ...        3.876 sec (=   0.065 min)  52.0 %
Property calculations            ...        0.397 sec (=   0.007 min)   5.3 %
SCF Gradient evaluation          ...        2.264 sec (=   0.038 min)  30.4 %
                             ****ORCA TERMINATED NORMALLY****
TOTAL RUN TIME: 0 days 0 hours 0 minutes 8 seconds 63 msec
