
                                 *****************
                                 * O   R   C   A *
                                 *****************

                                            #,                                       
                                            ###                                      
                                            ####                                     
                                            #####                                    
                                            ######                                   
                                           ########,                                 
                                     ,,################,,,,,                         
                               ,,#################################,,                 
                          ,,##########################################,,             
                       ,#########################################, ''#####,          
                    ,#############################################,,   '####,        
                  ,##################################################,,,,####,       
                ,###########''''           ''''###############################       
              ,#####''   ,,,,##########,,,,          '''####'''          '####       
            ,##' ,,,,###########################,,,                        '##       
           ' ,,###''''                  '''############,,,                           
         ,,##''                                '''############,,,,        ,,,,,,###''
      ,#''                                            '''#######################'''  
     '                                                          ''''####''''         
             ,#######,   #######,   ,#######,      ##                                
            ,#'     '#,  ##    ##  ,#'     '#,    #''#        ,####,    ,#,          
            ##       ##  ##   ,#'  ##            #'  '#       #'       ,# #          
            ##       ##  #######   ##           ,######,      #####,      #          
            '#,     ,#'  ##    ##  '#,     ,#' ,#      #,     #,   #      #          
             '#######'   ##     ##  '#######'  #'      '#     '####' #    #          



                #########################################################
                #                        -***-                          #
                #          Department of theory and spectroscopy        #
                #                                                       #
                #                      Frank Neese                      #
                #                                                       #
                #     Directorship, Architecture, Infrastructure        #
                #                    SHARK, DRIVERS                     #
                #        Core code/Algorithms in most modules           #
                #                                                       #
                #        Max Planck Institute fuer Kohlenforschung      #
                #                Kaiser Wilhelm Platz 1                 #
                #                 D-45470 Muelheim/Ruhr                 #
                #                      Germany                          #
                #                                                       #
                #                  All rights reserved                  #
                #                        -***-                          #
                #########################################################


                         Program Version 6.1.0  -  RELEASE   -
                                (GIT: $679e74b$)
                          ($2025-06-10 18:02:51 +0200$)


 With contributions from (in alphabetic order):
[Max-Planck-Institut fuer Kohlenforschung]                               
  Daniel Aravena         : Magnetic Suceptibility                        
  Michael Atanasov       : Ab Initio Ligand Field Theory (pilot matlab implementation)
  Alexander A. Auer      : GIAO ZORA, VPT2 properties, NMR spectrum      
  Ute Becker             : All parallelization in ORCA, NUMFREQ, NUMCALC 
  Giovanni Bistoni       : ED, misc. LED, open-shell LED, HFLD           
  Dmytro Bykov           : pre 5.0 version of the SCF Hessian            
  Marcos Casanova-Páez   : Triplet and SCS-CIS(D). UHF-(DLPNO)-IP/EA/STEOM-CCSD. UHF-CVS-IP/STEOM-CCSD   
  Vijay G. Chilkuri      : MRCI spin determinant printing, contributions to CSF-ICE 
  Pauline Colinet        : FMM embedding                                 
  Dipayan Datta          : RHF DLPNO-CCSD density                        
  Achintya Kumar Dutta   : EOM-CC, STEOM-CC                              
  Nicolas Foglia         : Exact transition moments, OPA infrastructure, MCD improvements    
  Dmitry Ganyushin       : Spin-Orbit,Spin-Spin,Magnetic field MRCI      
  Miquel Garcia-Rates    : C-PCM and meta-GGA Hessian, CCSD/C-PCM, Gaussian charge scheme 
  Tiago L. C. Gouveia    : GS-ROHF, GS-ROCIS                             
  Yang Guo               : DLPNO-NEVPT2, F12-NEVPT2, CIM, IAO-localization        
  Andreas Hansen         : Spin unrestricted coupled pair/coupled cluster methods 
  Ingolf Harden          : AUTO-CI MPn and infrastructure                
  Benjamin Helmich-Paris : MC-RPA, TRAH-(SCF,CASSCF), AVAS, COSX integrals, SCF dyn. polar., MC-PDFT, srDFT 
  Lee Huntington         : MR-EOM, pCC                                   
  Robert Izsak           : Overlap fitted RIJCOSX, COSX-SCS-MP3, EOM     
  Riya Kayal             : Wick's Theorem for AUTO-CI, AUTO-CI UHF-CCSDT 
  Emily Kempfer          : AUTO-CI RHF CISDT and CCSDT, approximate NEVPT4
  Christian Kollmar      : KDIIS, OOCD, Brueckner-CCSD(T), CCSD density, CASPT2, CASPT2-K, improved NEVPT2 
  Axel Koslowski         : Symmetry handling                             
  Simone Kossmann        : meta-GGA functionals, TD-DFT gradient, OOMP2, (MP2 Hessian; deprecated post 5.0) 
  Lucas Lang             : DCDCAS, Hyperfine gauge corrections, ICE-SOC+SSC
  Marvin Lechner         : AUTO-CI (C++ implementation), FIC-MRCC        
  Spencer Leger          : CASSCF response                               
  Dagmar Lenk            : GEPOL surface, SMD, ORCA-2-JSON               
  Dimitrios Liakos       : Extrapolation schemes; Compound Job, Property file
  Dimitrios Manganas     : Further ROCIS development; embedding schemes. LFT, Crystal Embedding 
  Dimitrios Pantazis     : SARC Basis sets                               
  Anastasios Papadopoulos: AUTO-CI, single reference methods and gradients 
  Taras Petrenko         : pre 6.0 DFT Hessian and TD-DFT gradient,  ECA, NRVS 
  Petra Pikulova         : Analytic Raman intensities                    
  Peter Pinski           : DLPNO-MP2, DLPNO-MP2 Gradient                 
  Shashank Vittal Rao    : ES-AILFT, MagRelax                            
  Christoph Reimann      : Effective Core Potentials                     
  Marius Retegan         : Local ZFS, SOC                                
  Christoph Riplinger    : Optimizer, TS searches, QM/MM, DLPNO-CCSD(T), (RO)-DLPNO pert. Triples 
  Michael Roemelt        : Original ROCIS implementation, recursive CI coupling coefficients
  Masaaki Saitow         : Open-shell DLPNO-CCSD energy and density      
  Barbara Sandhoefer     : DKH picture change effects                    
  Yorick L. A. Schmerwitz: GMF and freeze-and-release deltaSCF, NEB S-IDPP initial path                    
  Kantharuban Sivalingam : CASSCF convergence/infrastructure, NEVPT2, NEVPT3, NEVPT4(SD), FIC-MRCI and CEPA variants
  Bernardo de Souza      : ESD, SOC TD-DFT                               
  Georgi L. Stoychev     : AutoAux, RI-MP2 NMR, DLPNO-MP2 response, X2C  
  Van Anh Tran           : RI-MP2 g-tensors                              
  Willem Van den Heuvel  : Paramagnetic NMR                              
  Zikuan Wang            : NOTCH, Electric field optimization            
  Frank Wennmohs         : Technical directorship and infrastructure     
  Hang Xu                : AUTO-CI-Response properties                   
                                                                         
[FACCTs GmbH]                                                            
  Markus Bursch, Nicolas Foglia, Miquel Garcia-Rates, Ingolf Harden, Hagen Neugebauer, Anastasios Papadopoulos, 
  Christoph Riplinger, Bernardo de Souza, Georgi L. Stoychev                                                    
                                                                 
  APM, various basis sets, CI-OPT, improved COSX, DLPNO-Multilevel,           
  DOCKER, DRACO, updates on ESD, Fragmentator, GOAT, IRC, LR-CPCM, L-BFGS, MBIS, meta-GGA TD-DFT gradient, ML-optimized integration grids, 
  MM, NACMEs, nearIR, NEB, NEB-TS, NL-DFT gradient (VV10), 2- and 3-layer-ONIOM, interface openCOSMO-RS, QMMM,   
  Crystal-QMMM, RESP, rigid body optimization, SF, symmetry and pop. for TD-DFT, various functionals, SOLVATOR                                   
                                                                         
[Other institutions]                                                     
  V. Asgeirsson          : NEB                                           
  Christoph Bannwarth    : sTDA-DFT, sTD-DFT, PBEh-3c, B97-3c, D3        
  Giovanni Bistoni       : ETS/NOCV, ADLD/ADEX, COVALED                  
  Martin Brehm           : Molecular dynamics                            
  Ronald Cardenas        : ETS/NOCV                                      
  Martina Colucci        : COVALED                                       
  Sebastian Ehlert       : rSCAN, r2SCAN, r2SCAN-3c, D4, dhf basis sets  
  Marvin Friede          : D4 for Fr, Ra, Ac-Lr                          
  Lars Goerigk           : TD-DFT with DH, B97 family of functionals     
  Stefan Grimme          : VdW corrections, initial TS optimization, DFT functionals, gCP, sTDA/sTD-DF 
  Waldemar Hujo          : DFT-NL                                        
  H. Jonsson             : NEB                                           
  Holger Kruse           : gCP                                           
  Marcel Mueller         : wB97X-3c, vDZP basis set                      
  Hagen Neugebauer       : wr2SCAN, Native XTB                           
  Gianluca Regni         : ADLD/ADEX                                     
  Tobias Risthaus        : pre 6.0 range-separated hybrid DFT and stability analysis
  Lukas Wittmann         : regularized MP2, r2SCAN double-hybrids, wr2SCAN        
                                                                         
We gratefully acknowledge several colleagues who have allowed us to      
interface, adapt or use parts of their codes:                            
  Ed Valeev, F. Pavosevic, A. Kumar             : LibInt (2-el integral package), F12 methods 
  Garnet Chan, S. Sharma, J. Yang, R. Olivares  : DMRG                   
  Ulf Ekstrom                                   : XCFun DFT Library      
  Mihaly Kallay                                 : mrcc  (arbitrary order and MRCC methods)
  Frank Weinhold                                : gennbo (NPA and NBO analysis)           
  Simon Mueller                                 : openCOSMO-RS                            
  Christopher J. Cramer and Donald G. Truhlar   : smd solvation model                     
  S Lehtola, MJT Oliveira, MAL Marques          : LibXC Library                           
  Liviu Ungur et al                             : ANISO software                          


 Your calculation uses the libint2 library for the computation of 2-el integrals
 For citations please refer to: http://libint.valeyev.net

 Your ORCA version has been built with support for libXC version: 7.0.0
 For citations please refer to: https://libxc.gitlab.io

 This ORCA versions uses:
   CBLAS   interface :  Fast vector & matrix operations
   LAPACKE interface :  Fast linear algebra routines
   SCALAPACK package :  Parallel linear algebra routines
   Shared memory     :  Shared parallel matrices
   BLAS/LAPACK       :  OpenBLAS 0.3.29  USE64BITINT DYNAMIC_ARCH NO_AFFINITY Zen SINGLE_THREADED
        Core in use  :  Zen
   Copyright (c) 2011-2014, The OpenBLAS Project


  ***********************************
  * Starting time: Wed Sep 10 13:34:23 2025
  * Host name:     wyk-Server
  * Process ID:    2282389
  * Working dir.:  /home/wyk/Documents/code/openQDC/MGMR/singlepointcalc/34/prod
  ***********************************

Your calculation utilizes the atom-pairwise dispersion correction
with the Becke-Johnson damping scheme (D3BJ)


Warning: RI is on but no J-basis has been assigned. Assigning Def2/J (nothing to worry about!)
================================================================================

----- Orbital basis set information -----
Your calculation utilizes the basis: def2-SVP
   F. Weigend and R. Ahlrichs, Phys. Chem. Chem. Phys. 7, 3297 (2005).

----- AuxJ basis set information -----
Your calculation utilizes the auxiliary basis: def2/J
   H-Rn: F. Weigend, Phys. Chem. Chem. Phys. 8, 1057 (2006).
   Fr-Lr: K. Eichkorn, F. Weigend, O. Treutler, R. Ahlrichs; Theor. Chem. Acc. 97, 119 (1997).

================================================================================
                                        WARNINGS
                       Please study these warnings very carefully!
================================================================================


================================================================================
                                       INPUT FILE
================================================================================
NAME = orca.inp
|  1> ! B3LYP def2-SVP d3 EnGrad 
|  2> %pal nprocs 6 end 
|  3> *xyz 0 1 
|  4> C   0.78861541845697 -0.4466398988294 0.02112691005303
|  5> O   1.25621587694403 0.65894444324682 0.03271489971987
|  6> N   -2.19816464048986 0.26372947730608 0.01069909986343
|  7> H   -2.04664732757616 -0.6770554781555 -0.35398686315426
|  8> H   -1.62030741057421 0.89399779998475 -0.54561371321683
|  9> H   0.55693222943497 -0.9953753071309 -0.92851711548894
| 10> H   -1.8188307912926 0.28341102384664 0.95737757479133
| 11> H   0.56788764509686 -1.02089606026847 0.95815820743237
| 12> *
| 13> 
| 14>                          ****END OF INPUT****
================================================================================

                     *******************************
                     * Energy+Gradient Calculation *
                     *******************************

---------------------------------
CARTESIAN COORDINATES (ANGSTROEM)
---------------------------------
  C      0.788615   -0.446640    0.021127
  O      1.256216    0.658944    0.032715
  N     -2.198165    0.263729    0.010699
  H     -2.046647   -0.677055   -0.353987
  H     -1.620307    0.893998   -0.545614
  H      0.556932   -0.995375   -0.928517
  H     -1.818831    0.283411    0.957378
  H      0.567888   -1.020896    0.958158

----------------------------
CARTESIAN COORDINATES (A.U.)
----------------------------
  NO LB      ZA    FRAG     MASS         X           Y           Z
   0 C     6.0000    0    12.011    1.490267   -0.844027    0.039924
   1 O     8.0000    0    15.999    2.373904    1.245225    0.061822
   2 N     7.0000    0    14.007   -4.153929    0.498376    0.020218
   3 H     1.0000    0     1.008   -3.867603   -1.279449   -0.668938
   4 H     1.0000    0     1.008   -3.061937    1.689411   -1.031060
   5 H     1.0000    0     1.008    1.052449   -1.880987   -1.754643
   6 H     1.0000    0     1.008   -3.437092    0.535569    1.809181
   7 H     1.0000    0     1.008    1.073152   -1.929214    1.810657

--------------------------------
INTERNAL COORDINATES (ANGSTROEM)
--------------------------------
 C      0   0   0     0.000000000000     0.00000000     0.00000000
 O      1   0   0     1.200458748865     0.00000000     0.00000000
 N      1   2   0     3.070112133180    99.54850800     0.00000000
 H      3   1   2     1.020308620055    69.10817110   157.95399421
 H      3   1   2     1.020118170966    66.02885774    37.27854278
 H      1   2   3     1.120986807972   122.65004344    89.91812093
 H      3   1   2     1.020040032211    68.87062104   276.98027462
 H      1   2   3     1.120945378309   122.71361395   268.65624115

---------------------------
INTERNAL COORDINATES (A.U.)
---------------------------
 C      0   0   0     0.000000000000     0.00000000     0.00000000
 O      1   0   0     2.268538270424     0.00000000     0.00000000
 N      1   2   0     5.801671132139    99.54850800     0.00000000
 H      3   1   2     1.928103863982    69.10817110   157.95399421
 H      3   1   2     1.927743967363    66.02885774    37.27854278
 H      1   2   3     2.118358066805   122.65004344    89.91812093
 H      3   1   2     1.927596306515    68.87062104   276.98027462
 H      1   2   3     2.118279776088   122.71361395   268.65624115

---------------------
BASIS SET INFORMATION
---------------------
There are 4 groups of distinct atoms

 Group   1 Type C   : 7s4p1d contracted to 3s2p1d pattern {511/31/1}
 Group   2 Type O   : 7s4p1d contracted to 3s2p1d pattern {511/31/1}
 Group   3 Type N   : 7s4p1d contracted to 3s2p1d pattern {511/31/1}
 Group   4 Type H   : 4s1p contracted to 2s1p pattern {31/1}

Atom   0C    basis set group =>   1
Atom   1O    basis set group =>   2
Atom   2N    basis set group =>   3
Atom   3H    basis set group =>   4
Atom   4H    basis set group =>   4
Atom   5H    basis set group =>   4
Atom   6H    basis set group =>   4
Atom   7H    basis set group =>   4
---------------------------------
AUXILIARY/J BASIS SET INFORMATION
---------------------------------
There are 4 groups of distinct atoms

 Group   1 Type C   : 12s5p4d2f1g contracted to 6s4p3d1f1g pattern {711111/2111/211/2/1}
 Group   2 Type O   : 12s5p4d2f1g contracted to 6s4p3d1f1g pattern {711111/2111/211/2/1}
 Group   3 Type N   : 12s5p4d2f1g contracted to 6s4p3d1f1g pattern {711111/2111/211/2/1}
 Group   4 Type H   : 5s2p1d contracted to 3s1p1d pattern {311/2/1}

Atom   0C    basis set group =>   1
Atom   1O    basis set group =>   2
Atom   2N    basis set group =>   3
Atom   3H    basis set group =>   4
Atom   4H    basis set group =>   4
Atom   5H    basis set group =>   4
Atom   6H    basis set group =>   4
Atom   7H    basis set group =>   4


           ************************************************************
           *        Program running with 6 parallel MPI-processes     *
           *              working on a common directory               *
           ************************************************************
------------------------------------------------------------------------------
                             ORCA STARTUP CALCULATIONS
                           -- RI-GTO INTEGRALS CHOSEN --
------------------------------------------------------------------------------
------------------------------------------------------------------------------
                   ___                                                        
                  /   \      - P O W E R E D   B Y -                         
                 /     \                                                     
                 |  |  |   _    _      __       _____    __    __             
                 |  |  |  | |  | |    /  \     |  _  \  |  |  /  |          
                  \  \/   | |  | |   /    \    | | | |  |  | /  /          
                 / \  \   | |__| |  /  /\  \   | |_| |  |  |/  /          
                |  |  |   |  __  | /  /__\  \  |    /   |      \           
                |  |  |   | |  | | |   __   |  |    \   |  |\   \          
                \     /   | |  | | |  |  |  |  | |\  \  |  | \   \       
                 \___/    |_|  |_| |__|  |__|  |_| \__\ |__|  \__/        
                                                                              
                      - O R C A' S   B I G   F R I E N D -                    
                                      &                                       
                       - I N T E G R A L  F E E D E R -                       
                                                                              
 v1 FN, 2020, v2 2021, v3 2022-2024                                           
------------------------------------------------------------------------------


----------------------
SHARK INTEGRAL PACKAGE
----------------------

Number of atoms                             ...      8
Number of basis functions                   ...     67
Number of shells                            ...     33
Maximum angular momentum                    ...      2
Integral batch strategy                     ... SHARK/LIBINT Hybrid
RI-J (if used) integral strategy            ... SPLIT-RIJ (Revised 2003 algorithm where possible)
Printlevel                                  ...      1
Contraction scheme used                     ... SEGMENTED contraction
Prescreening option                         ... SCHWARTZ
   Thresh                                   ... 2.500e-11
   Tcut                                     ... 2.500e-12
   Tpresel                                  ... 2.500e-12 
Coulomb Range Separation                    ... NOT USED
Exchange Range Separation                   ... NOT USED
Multipole approximations                    ... NOT USED
Finite Nucleus Model                        ... NOT USED
CABS basis                                  ... NOT available
Auxiliary Coulomb fitting basis             ... AVAILABLE
   # of basis functions in Aux-J            ...    202
   # of shells in Aux-J                     ...     70
   Maximum angular momentum in Aux-J        ...      4
Auxiliary J/K fitting basis                 ... NOT available
Auxiliary Correlation fitting basis         ... NOT available
Auxiliary 'external' fitting basis          ... NOT available

Checking pre-screening integrals            ... done (  0.0 sec) Dimension = 33
   => SHARK Basis and OBASIS are compatible. Storing Pre-screening
Shell pair information
Shell pair cut-off parameter TPreSel        ...   2.5e-12
Total number of shell pairs                 ...       561
Shell pairs after pre-screening             ...       553
Total number of primitive shell pairs       ...      1945
Primitive shell pairs kept                  ...      1587
          la=0 lb=0:    187 shell pairs
          la=1 lb=0:    206 shell pairs
          la=1 lb=1:     66 shell pairs
          la=2 lb=0:     55 shell pairs
          la=2 lb=1:     33 shell pairs
          la=2 lb=2:      6 shell pairs

Checking whether 4 symmetric matrices of dimension 67 fit in memory
:Max Core in MB      =   4096.00
 MB in use           =      3.93
 MB left             =   4092.07
 MB needed           =      0.07
 Data fit in memory  = YES
Calculating RI/J V-Matrix + Cholesky decomp.... done (  0.0 sec)
Calculating Nuclear repulsion               ... done (  0.0 sec) ENN=     69.559881164362 Eh

Diagonalization of the overlap matrix:
Smallest eigenvalue                        ... 1.595e-02
Time for diagonalization                   ...    0.001 sec
Threshold for overlap eigenvalues          ... 1.000e-07
Number of eigenvalues below threshold      ... 0
Time for construction of square roots      ...    0.000 sec
Total time needed                          ...    0.002 sec

-------------------
DFT GRID GENERATION
-------------------

General Integration Accuracy     IntAcc      ... 4.388
Radial Grid Type                 RadialGrid  ... OptM3 with GC (2021)
Angular Grid (max. ang.)         AngularGrid ... 4 (Lebedev-302)
Angular grid pruning method      GridPruning ... 4 (adaptive)
Weight generation scheme         WeightScheme... mBecke (2022)
Basis function cutoff            BFCut       ... 1.0000e-11
Integration weight cutoff        WCut        ... 1.0000e-14
Partially contracted basis set               ... off
Rotationally invariant grid construction     ... off
Angular grids for H and He will be reduced by one unit

Total number of grid points                  ...    34698
Total number of batches                      ...      547
Average number of points per batch           ...       63
Average number of grid points per atom       ...     4337

--------------------
COSX GRID GENERATION
--------------------

GRIDX 1
-------
General Integration Accuracy     IntAcc      ... 3.816
Radial Grid Type                 RadialGrid  ... OptM3 with GC (2021)
Angular Grid (max. ang.)         AngularGrid ... 1 (Lebedev-50)
Angular grid pruning method      GridPruning ... 4 (adaptive)
Weight generation scheme         WeightScheme... mBecke (2022)
Basis function cutoff            BFCut       ... 1.0000e-11
Integration weight cutoff        WCut        ... 1.0000e-14
Partially contracted basis set               ... on
Rotationally invariant grid construction     ... off
Angular grids for H and He will be reduced by one unit

Total number of grid points                  ...     4484
Total number of batches                      ...       41
Average number of points per batch           ...      109
Average number of grid points per atom       ...      560
UseSFitting                                  ... on

GRIDX 2
-------
General Integration Accuracy     IntAcc      ... 4.020
Radial Grid Type                 RadialGrid  ... OptM3 with GC (2021)
Angular Grid (max. ang.)         AngularGrid ... 2 (Lebedev-110)
Angular grid pruning method      GridPruning ... 4 (adaptive)
Weight generation scheme         WeightScheme... mBecke (2022)
Basis function cutoff            BFCut       ... 1.0000e-11
Integration weight cutoff        WCut        ... 1.0000e-14
Partially contracted basis set               ... on
Rotationally invariant grid construction     ... off
Angular grids for H and He will be reduced by one unit

Total number of grid points                  ...     9536
Total number of batches                      ...       79
Average number of points per batch           ...      120
Average number of grid points per atom       ...     1192
UseSFitting                                  ... on

GRIDX 3
-------
General Integration Accuracy     IntAcc      ... 4.338
Radial Grid Type                 RadialGrid  ... OptM3 with GC (2021)
Angular Grid (max. ang.)         AngularGrid ... 3 (Lebedev-194)
Angular grid pruning method      GridPruning ... 4 (adaptive)
Weight generation scheme         WeightScheme... mBecke (2022)
Basis function cutoff            BFCut       ... 1.0000e-11
Integration weight cutoff        WCut        ... 1.0000e-14
Partially contracted basis set               ... on
Rotationally invariant grid construction     ... off
Angular grids for H and He will be reduced by one unit

Total number of grid points                  ...    20964
Total number of batches                      ...      166
Average number of points per batch           ...      126
Average number of grid points per atom       ...     2620
UseSFitting                                  ... on
Grids setup in   0.4 sec
Initializing property integral containers    ... done (  0.0 sec)

SHARK setup successfully completed in   0.4 seconds

Maximum memory used throughout the entire STARTUP-calculation: 11.5 MB


           ************************************************************
           *        Program running with 6 parallel MPI-processes     *
           *              working on a common directory               *
           ************************************************************
-------------------------------------------------------------------------------
                                 ORCA GUESS
                   Start orbitals & Density for SCF / CASSCF
-------------------------------------------------------------------------------

------------
SCF SETTINGS
------------
Hamiltonian:
 Density Functional     Method          .... DFT(GTOs)
 Exchange Functional    Exchange        .... B88
   X-Alpha parameter    XAlpha          ....  0.666667
   Becke's b parameter  XBeta           ....  0.004200
 Correlation Functional Correlation     .... LYP
 LDA part of GGA corr.  LDAOpt          .... VWN-5
 Gradients option       PostSCFGGA      .... off
 Hybrid DFT is turned on
   Fraction HF Exchange ScalHFX         ....  0.200000
   Scaling of DF-GGA-X  ScalDFX         ....  0.720000
   Scaling of DF-GGA-C  ScalDFC         ....  0.810000
   Scaling of DF-LDA-C  ScalLDAC        ....  1.000000
   Perturbative correction              ....  0.000000
   NL short-range parameter             ....  4.800000
 RI-approximation to the Coulomb term is turned on
   Number of AuxJ basis functions       .... 202
   RIJ-COSX (HFX calculated with COS-X)).... on


General Settings:
 Integral files         IntName         .... orca
 Hartree-Fock type      HFTyp           .... RHF
 Total Charge           Charge          ....    0
 Multiplicity           Mult            ....    1
 Number of Electrons    NEL             ....   26
 Basis Dimension        Dim             ....   67
 Nuclear Repulsion      ENuc            ....     69.5598811644 Eh

Convergence Acceleration:
 AO-DIIS                CNVDIIS         .... on
   Start iteration      DIISMaxIt       ....    12
   Startup error        DIISStart       ....  0.200000
   # of expansion vecs  DIISMaxEq       ....     5
   Bias factor          DIISBfac        ....   1.050
   Max. coefficient     DIISMaxC        ....  10.000
 MO-DIIS                CNVKDIIS        .... off
 Trust-Rad. Augm. Hess. CNVTRAH         .... auto
   Auto Start mean grad. ratio tolernc. ....  1.125000
   Auto Start start iteration           ....    50
   Auto Start num. interpolation iter.  ....    10
   Max. Number of Micro iterations      ....    24
   Max. Number of Macro iterations      .... Maxiter - #DIIS iter
   Number of Davidson start vectors     ....     2
   Converg. threshold    (grad. norm)   ....   1.000e-05
   Grad. Scal. Fac. for Micro threshold ....   0.100
   Minimum threshold for Micro iter.    ....   1.000e-02
   NR start threshold (gradient norm)   ....   1.000e-04
   Initial trust radius                 ....   0.400
   Minimum AH scaling param. (alpha)    ....   1.000
   Maximum AH scaling param. (alpha)    .... 1000.000
   Quad. conv. algorithm                .... NR
   White noise on init. David. guess    .... on
   Maximum white noise                  ....   0.010
   Pseudo random numbers                .... off
   Inactive MOs                         .... canonical
   Orbital update algorithm             .... Taylor
   Preconditioner                       .... Diag
   Full preconditioner red. dimension   ....   250
 SOSCF                 CNVSOSCF           .... on
   Start iteration     SOSCFMaxIt         ....   150
   Startup grad/error  SOSCFStart         ....  0.003300
   Hessian update      SOSCFHessUp        .... L-BFGS
   Autom. constraints  SOSCFAutoConstrain .... off
 Level Shifting         CNVShift        .... on
   Level shift para.    LevelShift      ....    0.2500
   Turn off err/grad.   ShiftErr        ....    0.0010
 Zerner damping         CNVZerner       .... off
 Static damping         CNVDamp         .... on
   Fraction old density DampFac         ....    0.7000
   Max. Damping (<1)    DampMax         ....    0.9800
   Min. Damping (>=0)   DampMin         ....    0.0000
   Turn off err/grad.   DampErr         ....    0.1000

SCF Procedure:
 Maximum # iterations   MaxIter         ....   125
 SCF integral mode      SCFMode         .... Direct
   Integral package                     .... SHARK and LIBINT hybrid scheme
 Reset frequency        DirectResetFreq ....    20
 Integral Threshold     Thresh          ....  2.500e-11 Eh
 Primitive CutOff       TCut            ....  2.500e-12 Eh

Convergence Tolerance:
 Convergence Check Mode ConvCheckMode   .... Total+1el-Energy
 Convergence forced     ConvForced      .... 0
 Energy Change          TolE            ....  1.000e-08 Eh
 1-El. energy change                    ....  1.000e-05 Eh
 Orbital Gradient       TolG            ....  1.000e-05
 Orbital Rotation angle TolX            ....  1.000e-05
 DIIS Error             TolErr          ....  5.000e-07

------------------------------
INITIAL GUESS: MODEL POTENTIAL
------------------------------
Loading Hartree-Fock densities                     ... done
Calculating cut-offs                               ... done
Initializing the effective Hamiltonian             ... done
Setting up the integral package (SHARK)            ... done
Starting the Coulomb interaction                   ... done (   0.0 sec)
Making the grid                                    ... done (   0.1 sec)
Mapping shells                                     ... done
Starting the XC term evaluation                    ... done (   0.0 sec)
  promolecular density results
     # of electrons  =     25.996578444
     EX              =    -21.326842186
     EC              =     -0.852454415
     EX+EC           =    -22.179296601
Transforming the Hamiltonian                       ... done (   0.0 sec)
Diagonalizing the Hamiltonian                      ... done (   0.0 sec)
Back transforming the eigenvectors                 ... done (   0.0 sec)
Now organizing SCF variables                       ... done
                      ------------------
                      INITIAL GUESS DONE (   0.1 sec)
                      ------------------
             **** ENERGY FILE WAS UPDATED (orca.en.tmp) ****
Finished Guess after   0.2 sec
Maximum memory used throughout the entire GUESS-calculation: 6.2 MB


           ************************************************************
           *        Program running with 6 parallel MPI-processes     *
           *              working on a common directory               *
           ************************************************************

-------------------------------------------------------------------------------------------
                                      ORCA LEAN-SCF
                              memory conserving SCF solver
-------------------------------------------------------------------------------------------

----------------------------------------D-I-I-S--------------------------------------------
Iteration    Energy (Eh)           Delta-E    RMSDP     MaxDP     DIISErr   Damp  Time(sec)
-------------------------------------------------------------------------------------------
               ***  Starting incremental Fock matrix formation  ***
    1    -170.6428889647312417     0.00e+00  1.67e-02  1.02e-01  2.99e-01  0.700   0.2
    2    -170.7378933401653285    -9.50e-02  9.99e-03  5.96e-02  1.32e-01  0.700   0.1
                               ***Turning on AO-DIIS***
    3    -170.7674533153299308    -2.96e-02  3.32e-03  1.76e-02  3.50e-02  0.700   0.1
    4    -170.7866379872070581    -1.92e-02  4.60e-03  2.49e-02  1.87e-02  0.000   0.1
    5    -170.8312127349210812    -4.46e-02  1.43e-03  6.68e-03  1.17e-02  0.000   0.1
                              *** Initializing SOSCF ***
---------------------------------------S-O-S-C-F--------------------------------------
Iteration    Energy (Eh)           Delta-E    RMSDP     MaxDP     MaxGrad    Time(sec)
--------------------------------------------------------------------------------------
    6    -170.8315395142458613    -3.27e-04  4.30e-04  2.18e-03  2.51e-03     0.1
               *** Restarting incremental Fock matrix formation ***
    7    -170.8315755207136704    -3.60e-05  3.31e-04  1.74e-03  3.11e-04     0.2
    8    -170.8315768670657349    -1.35e-06  9.16e-05  6.12e-04  3.56e-04     0.2
    9    -170.8315777906724691    -9.24e-07  7.28e-05  5.02e-04  2.12e-04     0.2
   10    -170.8315778440450572    -5.34e-08  3.46e-05  2.72e-04  1.52e-04     0.2
   11    -170.8315780469002334    -2.03e-07  1.99e-05  1.22e-04  4.83e-05     0.2
   12    -170.8315780511972264    -4.30e-09  9.16e-06  6.11e-05  2.79e-05     0.2
                 **** Energy Check signals convergence ****

               *****************************************************
               *                     SUCCESS                       *
               *           SCF CONVERGED AFTER  12 CYCLES          *
               *****************************************************

Recomputing exchange energy using gridx3       ... done (    0.205 sec)
Old exchange energy                            :     -4.340086967 Eh
New exchange energy                            :     -4.340081710 Eh
Exchange energy change after final integration :      0.000005256 Eh
Total energy after final integration           :   -170.831572806 Eh
             **** ENERGY FILE WAS UPDATED (orca.en.tmp) ****

----------------
TOTAL SCF ENERGY
----------------

Total Energy       :       -170.83157280620600 Eh           -4648.56342 eV

Components:
Nuclear Repulsion  :         69.55988116436239 Eh            1892.82060 eV
Electronic Energy  :       -240.39145922676335 Eh           -6541.38416 eV
One Electron Energy:       -369.50448305419678 Eh          -10054.72816 eV
Two Electron Energy:        129.11302382743344 Eh            3513.34399 eV

Virial components:
Potential Energy   :       -340.19555009744374 Eh           -9257.19154 eV
Kinetic Energy     :        169.36397729123772 Eh            4608.62812 eV
Virial Ratio       :          2.00866533449698

DFT components:
N(Alpha)           :       13.000009099620 electrons
N(Beta)            :       13.000009099620 electrons
N(Total)           :       26.000018199240 electrons
E(X)               :      -17.266016197117 Eh       
E(C)               :       -1.017530628558 Eh       
E(XC)              :      -18.283546825675 Eh       

---------------
SCF CONVERGENCE
---------------

  Last Energy change         ...    4.2970e-09  Tolerance :   1.0000e-08
  Last MAX-Density change    ...    6.1090e-05  Tolerance :   1.0000e-07
  Last RMS-Density change    ...    9.1601e-06  Tolerance :   5.0000e-09
  Last DIIS Error            ...    2.5085e-03  Tolerance :   5.0000e-07
  Last Orbital Gradient      ...    2.7940e-05  Tolerance :   1.0000e-05
  Last Orbital Rotation      ...    2.1529e-05  Tolerance :   1.0000e-05


----------------
ORBITAL ENERGIES
----------------

  NO   OCC          E(Eh)            E(eV) 
   0   2.0000     -19.152087      -521.1548 
   1   2.0000     -14.309616      -389.3845 
   2   2.0000     -10.291131      -280.0359 
   3   2.0000      -1.052885       -28.6505 
   4   2.0000      -0.840608       -22.8741 
   5   2.0000      -0.628046       -17.0900 
   6   2.0000      -0.496812       -13.5189 
   7   2.0000      -0.461336       -12.5536 
   8   2.0000      -0.458320       -12.4715 
   9   2.0000      -0.451668       -12.2905 
  10   2.0000      -0.407286       -11.0828 
  11   2.0000      -0.271080        -7.3765 
  12   2.0000      -0.260899        -7.0994 
  13   0.0000      -0.046110        -1.2547 
  14   0.0000       0.038488         1.0473 
  15   0.0000       0.091343         2.4856 
  16   0.0000       0.109206         2.9717 
  17   0.0000       0.132485         3.6051 
  18   0.0000       0.158796         4.3211 
  19   0.0000       0.220919         6.0115 
  20   0.0000       0.442268        12.0347 
  21   0.0000       0.476304        12.9609 
  22   0.0000       0.513016        13.9599 
  23   0.0000       0.515587        14.0298 
*Only the first 10 virtual orbitals were printed.

                    ********************************
                    * MULLIKEN POPULATION ANALYSIS *
                    ********************************

-----------------------
MULLIKEN ATOMIC CHARGES
-----------------------
   0 C :    0.141350
   1 O :   -0.213001
   2 N :   -0.233236
   3 H :    0.084881
   4 H :    0.098610
   5 H :    0.014932
   6 H :    0.092058
   7 H :    0.014406
Sum of atomic charges:    0.0000000

--------------------------------
MULLIKEN REDUCED ORBITAL CHARGES
--------------------------------
  0 C s       :     3.173186  s :     3.173186
      pz      :     0.967473  p :     2.608287
      px      :     0.773964
      py      :     0.866850
      dz2     :     0.008418  d :     0.077176
      dxz     :     0.006174
      dyz     :     0.035500
      dx2y2   :     0.013636
      dxy     :     0.013450

  1 O s       :     3.789143  s :     3.789143
      pz      :     1.819197  p :     4.404861
      px      :     1.263940
      py      :     1.321724
      dz2     :     0.002198  d :     0.018997
      dxz     :     0.000684
      dyz     :     0.003768
      dx2y2   :     0.006168
      dxy     :     0.006179

  2 N s       :     3.403974  s :     3.403974
      pz      :     1.062617  p :     3.812723
      px      :     1.654364
      py      :     1.095742
      dz2     :     0.002538  d :     0.016539
      dxz     :     0.005438
      dyz     :     0.002068
      dx2y2   :     0.002865
      dxy     :     0.003630

  3 H s       :     0.868110  s :     0.868110
      pz      :     0.011454  p :     0.047009
      px      :     0.014459
      py      :     0.021095

  4 H s       :     0.854823  s :     0.854823
      pz      :     0.013680  p :     0.046568
      px      :     0.016700
      py      :     0.016187

  5 H s       :     0.965706  s :     0.965706
      pz      :     0.012168  p :     0.019362
      px      :     0.002525
      py      :     0.004669

  6 H s       :     0.861134  s :     0.861134
      pz      :     0.022025  p :     0.046808
      px      :     0.014947
      py      :     0.009836

  7 H s       :     0.966238  s :     0.966238
      pz      :     0.011937  p :     0.019356
      px      :     0.002474
      py      :     0.004944



                     *******************************
                     * LOEWDIN POPULATION ANALYSIS *
                     *******************************

----------------------
LOEWDIN ATOMIC CHARGES
----------------------
   0 C :    0.116974
   1 O :   -0.123468
   2 N :   -0.127270
   3 H :    0.051087
   4 H :    0.056239
   5 H :   -0.013901
   6 H :    0.054197
   7 H :   -0.013858

-------------------------------
LOEWDIN REDUCED ORBITAL CHARGES
-------------------------------
  0 C s       :     2.926963  s :     2.926963
      pz      :     1.042607  p :     2.773435
      px      :     0.776222
      py      :     0.954606
      dz2     :     0.019984  d :     0.182629
      dxz     :     0.015375
      dyz     :     0.089335
      dx2y2   :     0.029244
      dxy     :     0.028691

  1 O s       :     3.558381  s :     3.558381
      pz      :     1.810454  p :     4.533225
      px      :     1.274674
      py      :     1.448097
      dz2     :     0.004440  d :     0.031862
      dxz     :     0.001070
      dyz     :     0.005945
      dx2y2   :     0.010129
      dxy     :     0.010280

  2 N s       :     3.138237  s :     3.138237
      pz      :     1.142927  p :     3.954312
      px      :     1.638392
      py      :     1.172994
      dz2     :     0.007117  d :     0.034721
      dxz     :     0.009611
      dyz     :     0.006761
      dx2y2   :     0.005333
      dxy     :     0.005898

  3 H s       :     0.830316  s :     0.830316
      pz      :     0.023687  p :     0.118598
      px      :     0.040023
      py      :     0.054887

  4 H s       :     0.824445  s :     0.824445
      pz      :     0.031163  p :     0.119316
      px      :     0.050732
      py      :     0.037422

  5 H s       :     0.950080  s :     0.950080
      pz      :     0.038270  p :     0.063821
      px      :     0.009209
      py      :     0.016342

  6 H s       :     0.826752  s :     0.826752
      pz      :     0.055418  p :     0.119052
      px      :     0.044079
      py      :     0.019555

  7 H s       :     0.950021  s :     0.950021
      pz      :     0.037523  p :     0.063837
      px      :     0.009024
      py      :     0.017290



                      *****************************
                      * MAYER POPULATION ANALYSIS *
                      *****************************

  NA   - Mulliken gross atomic population
  ZA   - Total nuclear charge
  QA   - Mulliken gross atomic charge
  VA   - Mayer's total valence
  BVA  - Mayer's bonded valence
  FA   - Mayer's free valence

  ATOM       NA         ZA         QA         VA         BVA        FA
  0 C      5.8586     6.0000     0.1414     4.0208     4.0208    -0.0000
  1 O      8.2130     8.0000    -0.2130     2.2221     2.2221    -0.0000
  2 N      7.2332     7.0000    -0.2332     3.0769     3.0769     0.0000
  3 H      0.9151     1.0000     0.0849     1.0033     1.0033     0.0000
  4 H      0.9014     1.0000     0.0986     1.0120     1.0120    -0.0000
  5 H      0.9851     1.0000     0.0149     0.9542     0.9542    -0.0000
  6 H      0.9079     1.0000     0.0921     1.0057     1.0057     0.0000
  7 H      0.9856     1.0000     0.0144     0.9542     0.9542     0.0000

  Mayer bond orders larger than 0.100000
B(  0-C ,  1-O ) :   2.1093 B(  0-C ,  5-H ) :   0.9088 B(  0-C ,  7-H ) :   0.9088 
B(  2-N ,  3-H ) :   0.9981 B(  2-N ,  4-H ) :   0.9960 B(  2-N ,  6-H ) :   0.9978 


-------
TIMINGS
-------

Total SCF time: 0 days 0 hours 0 min 2 sec 

Total time                  ....       2.326 sec
Sum of individual times     ....       2.134 sec  ( 91.7%)

SCF preparation             ....       0.133 sec  (  5.7%)
Fock matrix formation       ....       1.877 sec  ( 80.7%)
  Startup                   ....       0.003 sec  (  0.2% of F)
  Split-RI-J                ....       0.123 sec  (  6.6% of F)
  Chain of spheres X        ....       1.326 sec  ( 70.6% of F)
  XC integration            ....       0.504 sec  ( 26.8% of F)
    XC Preparation          ....       0.000 sec  (  0.0% of XC)
    Basis function eval.    ....       0.120 sec  ( 23.8% of XC)
    Density eval.           ....       0.050 sec  (  9.8% of XC)
    XC-Functional eval.     ....       0.039 sec  (  7.7% of XC)
    XC-Potential eval.      ....       0.053 sec  ( 10.5% of XC)
Diagonalization             ....       0.000 sec  (  0.0%)
Density matrix formation    ....       0.018 sec  (  0.8%)
Total Energy calculation    ....       0.011 sec  (  0.5%)
Population analysis         ....       0.009 sec  (  0.4%)
Orbital Transformation      ....       0.008 sec  (  0.3%)
Orbital Orthonormalization  ....       0.000 sec  (  0.0%)
DIIS solution               ....       0.042 sec  (  1.8%)
SOSCF solution              ....       0.036 sec  (  1.5%)
Finished LeanSCF after   2.3 sec

Maximum memory used throughout the entire LEANSCF-calculation: 6.5 MB


-------------------------------------------------------------------------------
                          DFT DISPERSION CORRECTION                            
                                                                               
                              DFTD3 V3.1  Rev 1                                
                          USING Becke-Johnson damping                          
-------------------------------------------------------------------------------
The B3LYP functional is recognized
Active option DFTDOPT                   ...         4   

molecular C6(AA) [au] = 453.853310 


            DFT-D V3
 parameters
 s6 scaling factor         :     1.0000 
 a1 scaling factor         :     0.3981 
 s8 scaling factor         :     1.9889 
 a2 scaling factor         :     4.4211 
 ad hoc parameters k1-k3   :    16.0000     1.3333    -4.0000 

 Edisp/kcal,au: -3.428504829300  -0.005463669642 
 E6   /kcal   :  -1.760674146 
 E8   /kcal   :  -1.667830683 
 % E8         :  48.646006525 

-------------------------   ----------------
Dispersion correction           -0.005463670
-------------------------   ----------------


-------------------------   --------------------
FINAL SINGLE POINT ENERGY      -170.837036475848
-------------------------   --------------------



           ************************************************************
           *        Program running with 6 parallel MPI-processes     *
           *              working on a common directory               *
           ************************************************************
------------------------------------------------------------------------------
                         ORCA SCF GRADIENT CALCULATION
------------------------------------------------------------------------------

Nuc. rep. gradient        (SHARK) ... done (  0.0 sec)
HCore & Overlap gradient  (SHARK) ... done (  0.0 sec)
Split-RIJ-J gradient      (SHARK) ... done (  0.1 sec)
done (  0.9 sec)
XC gradient                       ... done (  0.2 sec)
Dispersion correction             ... done (  0.1 sec)

-------------------
DISPERSION GRADIENT
-------------------

   1   C   :    0.000392687   -0.000113220    0.000000109
   2   O   :    0.000323230    0.000067523    0.000000955
   3   N   :   -0.000420209    0.000085556   -0.000001212
   4   H   :   -0.000210271   -0.000019725   -0.000028890
   5   H   :   -0.000197655    0.000096643   -0.000043988
   6   H   :    0.000158825   -0.000082287   -0.000059620
   7   H   :   -0.000206448    0.000047418    0.000071978
   8   H   :    0.000159840   -0.000081909    0.000060667

Difference to translation invariance:
           :    0.0000000000    0.0000000000   -0.0000000000

Difference to rotation invariance:
           :    0.0000000000    0.0000000000   -0.0000000000

Norm of the Dispersion gradient    ...    0.0008229680
RMS gradient                       ...    0.0001679876
MAX gradient                       ...    0.0004202086

------------------
CARTESIAN GRADIENT
------------------

   1   C   :    0.000020669    0.000170307    0.000025788
   2   O   :   -0.000201752   -0.000161902   -0.000013566
   3   N   :    0.000055566    0.000098658    0.000134107
   4   H   :    0.000088999    0.000020916   -0.000022829
   5   H   :   -0.000001692   -0.000051429   -0.000062899
   6   H   :    0.000046820   -0.000019203   -0.000028918
   7   H   :   -0.000004505   -0.000016700   -0.000043132
   8   H   :   -0.000004105   -0.000040646    0.000011450

Difference to translation invariance:
           :   -0.0000000000    0.0000000001   -0.0000000000

Difference to rotation invariance:
           :   -0.0000073769   -0.0000261970   -0.0000299437

Norm of the Cartesian gradient     ...    0.0003883848
RMS gradient                       ...    0.0000792787
MAX gradient                       ...    0.0002017519

-------
TIMINGS
-------

Total SCF gradient time     ....        1.250 sec

Densities                   ....       0.000 sec  (  0.0%)
One electron gradient       ....       0.012 sec  (  1.0%)
RI-J Coulomb gradient       ....       0.113 sec  (  9.1%)
COSX gradient               ....       0.868 sec  ( 69.4%)
XC gradient                 ....       0.196 sec  ( 15.7%)

Maximum memory used throughout the entire SCFGRAD-calculation: 26.0 MB


           ************************************************************
           *        Program running with 6 parallel MPI-processes     *
           *              working on a common directory               *
           ************************************************************

------------------------------------------------------------------------------
                              ORCA PROPERTY CALCULATIONS
------------------------------------------------------------------------------

GBWName                                 ... orca.gbw
Number of atoms                         ...      8
Number of basis functions               ...     67
Max core memory                         ...   4096 MB

Electric properties:
Dipole moment                           ... YES
Quadrupole moment                       ...  NO
Static polarizability (Dipole/Dipole)   ...  NO
Static polarizability (Dipole/Quad.)    ...  NO
Static polarizability (Quad./Quad.)     ...  NO
Static polarizability (Velocity)        ...  NO
Static hyperpolarizability              ...  NO

Atomic electric properties:
Dipole moment                           ...  NO
Quadrupole moment                       ...  NO
Static polarizability                   ...  NO

Choice of electric origin               ... Center of mass
Position of electric origin             ...    -0.225500     0.294917     0.040766

General magnetic properties:
Magnetizability                         ...  NO

EPR properties:
g-Tensor (aka g-matrix)                 ...  NO
Zero-Field splitting spin-orbit         ...  NO
Zero-field splitting spin-spin          ...  NO
Hyperfine couplings                     ...  NO (   0 nuclei)
Quadrupole couplings                    ...  NO (   0 nuclei)
Contact density                         ...  NO (   0 nuclei)

NMR properties:
Chemical shifts                         ...  NO (   0 nuclei)
Spin-rotation constants                 ...  NO (   0 nuclei)
Spin-spin couplings                     ...  NO (   0 nuclei,    0 pairs)

Choice of magnetic origin               ... GIAO
Position of magnetic origin             ...     0.000000     0.000000     0.000000

Properties with geometric perturbations:
SCF Hessian                             ...  NO
IR spectrum                             ...  NO
VCD spectrum                            ...  NO
X-ray spectroscopy properties:
SCF XES/XAS/RIXS spectra                ...  NO

SCF SOC stabilization energy            ...  NO
Diagonal Born-Oppenheimer correction    ...  NO

-------------
DIPOLE MOMENT
-------------

Method             : SCF
Type of density    : Electron Density
Multiplicity       :   1
Irrep              :   0
Energy             :  -170.8315728062059975 Eh
Basis              : AO
                                X                 Y                 Z
Electronic contribution:      3.683445924       1.251877288       0.023723601
Nuclear contribution   :     -3.522698630      -2.146243239      -0.019075910
                        -----------------------------------------
Total Dipole Moment    :      0.160747294      -0.894365952       0.004647691
                        -----------------------------------------
Magnitude (a.u.)       :      0.908708836
Magnitude (Debye)      :      2.309754302



--------------------
Rotational spectrum 
--------------------
 
Rotational constants in cm-1:             1.072836             0.148244             0.136896 
Rotational constants in MHz :         32162.810121          4444.240848          4104.045583 

Dipole components along the rotational axes: 
x,y,z [a.u.] :     0.160372     0.894371     0.011565 
x,y,z [Debye]:     0.407634     2.273309     0.029396 

 

Dipole moment calculation done in   0.0 sec 

Maximum memory used throughout the entire PROP-calculation: 4.1 MB

--------------------------------
SUGGESTED CITATIONS FOR THIS RUN
--------------------------------

Below you find a list of papers that are relevant to this ORCA run
We neither can nor want to force you to cite these papers, but we appreciate if you do
You receive ORCA, which is the product of decades of hard work by many enthusiastic individuals, for free
The only thing we kindly ask in return is that you cite our papers,
We deeply appreciate it, if you show your appreciation for ORCA by not just citing the generic ORCA reference.

Please note that relegating all ORCA citations to the supporting information does *not* help us.
SI sections are not indexed - citations you put there will not count into any citation statistics
But we need these citations in order to attract the funding resources that allow us to do what we are doing

Therefore, if you are a happy ORCA user, please consider citing a few of the papers listed below in the main body of your paper

In addition to the list printed below, the program has created the file orca.bibtex that contains the list in bibtex format
You can import this file easily into all common literature databanks and citation aid programs


List of essential papers. We consider these as the minimum necessary citations

  1. Neese, F.
     Software update: the ORCA program system, version 6.0
     WIRES Comput. Molec. Sci. 2025 15(1), e70019
     doi.org/10.1002/wcms.7019

List of papers to cite with high priority. The work reported in these papers was absolutely
necessary for this run to complete.
Our perspective: the developers of density functionals and basis sets usually get cited in chemistry papers
Good! But without the algorithms to do something with them, the functionals or basis sets would not do anything.
Hence, in our opinion, the algorithm design and method developments papers are equally worthy of getting cited

  1. Neese, F.
     An improvement of the resolution of the identity approximation for the formation of the Coulomb matrix
     J. Comp. Chem. 2003 24(14), 1740-1747
     doi.org/10.1002/jcc.10318
  2. Neese, F.; Wennmohs, F.; Hansen, A.; Becker, U.
     Efficient, approximate and parallel Hartree-Fock and hybrid DFT calculations. A 'chain-of-spheres' algorithm for the Hartree-Fock exchange
     Chem. Phys. 2009 356(1-3), 98-109
     doi.org/10.1016/j.chemphys.2008.10.036
  3. Grimme, S.; Antony, J.; Ehrlich, S.; Krieg, H.
     A consistent and accurate ab initio parametrization of density functional dispersion correction (DFT-D) for the 94 elements H-Pu
     J. Chem. Phys. 2010 132 , 154104
     doi.org/10.1063/1.3382344
  4. Grimme, S.; Ehrlich, S.; Goerigk, L.
     Effect of the damping function in dispersion corrected density functional theory
     J. Comput. Chem. 2011 32(7), 1456-1465
     doi.org/10.1002/jcc.21759
  5. Helmich-Paris, B.; de Souza, B.; Neese, F.; Izsák, R.
     An improved chain of spheres for exchange algorithm
     J. Chem. Phys. 2021 155(10), 104109
     doi.org/10.1063/5.0058766
  6. Neese, F.
     The SHARK Integral Generation and Digestion System
     J. Comp. Chem. 2022 44(3), 381
     doi.org/10.1002/jcc.26942

List of suggested additional citations. These are papers that are important in the 'surrounding' of 
of this run, or papers that preceded the highly important papers. If you like your results we are grateful for a citation.

  1. Izsak, R.; Neese, F.
     An overlap fitted chain of spheres exchange method
     J. Chem. Phys. 2011 135 , 144105
     doi.org/10.1063/1.3646921
  2. Izsak, R.; Hansen, A.; Neese, F.
     The resolution of identity and chain of spheres approximations for the LPNO-CCSD singles Fock term
     Molec. Phys. 2012 110 , 2413-2417
     doi.org/10.1080/00268976.2012.687466
  3. Neese, F.
     The ORCA program system
     WIRES Comput. Molec. Sci. 2012 2(1), 73-78
     doi.org/10.1002/wcms.81
  4. Izsak, R.; Neese, F.; Klopper, W.
     Robust fitting techniques in the chain of spheres approximation to the Fock exchange: The role of the complementary space
     J. Chem. Phys. 2013 139 , 
     doi.org/10.1063/1.4819264
  5. Neese, F.
     Software update: the ORCA program system, version 4.0
     WIRES Comput. Molec. Sci. 2018 8(1), 1-6
     doi.org/10.1002/wcms.1327
  6. Neese, F.; Wennmohs, F.; Becker, U.; Riplinger, C.
     The ORCA quantum chemistry program package
     J. Chem. Phys. 2020 152(22), 224108
     doi.org/10.1063/5.0004608
  7. Neese, F.
     Software update: The ORCA program system—Version 5.0
     WIRES Comput. Molec. Sci. 2022 12(1), e1606
     doi.org/10.1002/wcms.1606

List of optional additional citations

  1. Neese, F.
     Approximate second-order SCF convergence for spin unrestricted wavefunctions
     Chem. Phys. Lett. 2000 325(1-3), 93-98
     doi.org/10.1016/s0009-2614(00)00662-x

Timings for individual modules:

Sum of individual times          ...        6.239 sec (=   0.104 min)
Startup calculation              ...        0.830 sec (=   0.014 min)  13.3 %
SCF iterations                   ...        3.265 sec (=   0.054 min)  52.3 %
Property calculations            ...        0.411 sec (=   0.007 min)   6.6 %
SCF Gradient evaluation          ...        1.733 sec (=   0.029 min)  27.8 %
                             ****ORCA TERMINATED NORMALLY****
TOTAL RUN TIME: 0 days 0 hours 0 minutes 6 seconds 773 msec
