
                                 *****************
                                 * O   R   C   A *
                                 *****************

                                            #,                                       
                                            ###                                      
                                            ####                                     
                                            #####                                    
                                            ######                                   
                                           ########,                                 
                                     ,,################,,,,,                         
                               ,,#################################,,                 
                          ,,##########################################,,             
                       ,#########################################, ''#####,          
                    ,#############################################,,   '####,        
                  ,##################################################,,,,####,       
                ,###########''''           ''''###############################       
              ,#####''   ,,,,##########,,,,          '''####'''          '####       
            ,##' ,,,,###########################,,,                        '##       
           ' ,,###''''                  '''############,,,                           
         ,,##''                                '''############,,,,        ,,,,,,###''
      ,#''                                            '''#######################'''  
     '                                                          ''''####''''         
             ,#######,   #######,   ,#######,      ##                                
            ,#'     '#,  ##    ##  ,#'     '#,    #''#        ,####,    ,#,          
            ##       ##  ##   ,#'  ##            #'  '#       #'       ,# #          
            ##       ##  #######   ##           ,######,      #####,      #          
            '#,     ,#'  ##    ##  '#,     ,#' ,#      #,     #,   #      #          
             '#######'   ##     ##  '#######'  #'      '#     '####' #    #          



                #########################################################
                #                        -***-                          #
                #          Department of theory and spectroscopy        #
                #                                                       #
                #                      Frank Neese                      #
                #                                                       #
                #     Directorship, Architecture, Infrastructure        #
                #                    SHARK, DRIVERS                     #
                #        Core code/Algorithms in most modules           #
                #                                                       #
                #        Max Planck Institute fuer Kohlenforschung      #
                #                Kaiser Wilhelm Platz 1                 #
                #                 D-45470 Muelheim/Ruhr                 #
                #                      Germany                          #
                #                                                       #
                #                  All rights reserved                  #
                #                        -***-                          #
                #########################################################


                         Program Version 6.1.0  -  RELEASE   -
                                (GIT: $679e74b$)
                          ($2025-06-10 18:02:51 +0200$)


 With contributions from (in alphabetic order):
[Max-Planck-Institut fuer Kohlenforschung]                               
  Daniel Aravena         : Magnetic Suceptibility                        
  Michael Atanasov       : Ab Initio Ligand Field Theory (pilot matlab implementation)
  Alexander A. Auer      : GIAO ZORA, VPT2 properties, NMR spectrum      
  Ute Becker             : All parallelization in ORCA, NUMFREQ, NUMCALC 
  Giovanni Bistoni       : ED, misc. LED, open-shell LED, HFLD           
  Dmytro Bykov           : pre 5.0 version of the SCF Hessian            
  Marcos Casanova-Páez   : Triplet and SCS-CIS(D). UHF-(DLPNO)-IP/EA/STEOM-CCSD. UHF-CVS-IP/STEOM-CCSD   
  Vijay G. Chilkuri      : MRCI spin determinant printing, contributions to CSF-ICE 
  Pauline Colinet        : FMM embedding                                 
  Dipayan Datta          : RHF DLPNO-CCSD density                        
  Achintya Kumar Dutta   : EOM-CC, STEOM-CC                              
  Nicolas Foglia         : Exact transition moments, OPA infrastructure, MCD improvements    
  Dmitry Ganyushin       : Spin-Orbit,Spin-Spin,Magnetic field MRCI      
  Miquel Garcia-Rates    : C-PCM and meta-GGA Hessian, CCSD/C-PCM, Gaussian charge scheme 
  Tiago L. C. Gouveia    : GS-ROHF, GS-ROCIS                             
  Yang Guo               : DLPNO-NEVPT2, F12-NEVPT2, CIM, IAO-localization        
  Andreas Hansen         : Spin unrestricted coupled pair/coupled cluster methods 
  Ingolf Harden          : AUTO-CI MPn and infrastructure                
  Benjamin Helmich-Paris : MC-RPA, TRAH-(SCF,CASSCF), AVAS, COSX integrals, SCF dyn. polar., MC-PDFT, srDFT 
  Lee Huntington         : MR-EOM, pCC                                   
  Robert Izsak           : Overlap fitted RIJCOSX, COSX-SCS-MP3, EOM     
  Riya Kayal             : Wick's Theorem for AUTO-CI, AUTO-CI UHF-CCSDT 
  Emily Kempfer          : AUTO-CI RHF CISDT and CCSDT, approximate NEVPT4
  Christian Kollmar      : KDIIS, OOCD, Brueckner-CCSD(T), CCSD density, CASPT2, CASPT2-K, improved NEVPT2 
  Axel Koslowski         : Symmetry handling                             
  Simone Kossmann        : meta-GGA functionals, TD-DFT gradient, OOMP2, (MP2 Hessian; deprecated post 5.0) 
  Lucas Lang             : DCDCAS, Hyperfine gauge corrections, ICE-SOC+SSC
  Marvin Lechner         : AUTO-CI (C++ implementation), FIC-MRCC        
  Spencer Leger          : CASSCF response                               
  Dagmar Lenk            : GEPOL surface, SMD, ORCA-2-JSON               
  Dimitrios Liakos       : Extrapolation schemes; Compound Job, Property file
  Dimitrios Manganas     : Further ROCIS development; embedding schemes. LFT, Crystal Embedding 
  Dimitrios Pantazis     : SARC Basis sets                               
  Anastasios Papadopoulos: AUTO-CI, single reference methods and gradients 
  Taras Petrenko         : pre 6.0 DFT Hessian and TD-DFT gradient,  ECA, NRVS 
  Petra Pikulova         : Analytic Raman intensities                    
  Peter Pinski           : DLPNO-MP2, DLPNO-MP2 Gradient                 
  Shashank Vittal Rao    : ES-AILFT, MagRelax                            
  Christoph Reimann      : Effective Core Potentials                     
  Marius Retegan         : Local ZFS, SOC                                
  Christoph Riplinger    : Optimizer, TS searches, QM/MM, DLPNO-CCSD(T), (RO)-DLPNO pert. Triples 
  Michael Roemelt        : Original ROCIS implementation, recursive CI coupling coefficients
  Masaaki Saitow         : Open-shell DLPNO-CCSD energy and density      
  Barbara Sandhoefer     : DKH picture change effects                    
  Yorick L. A. Schmerwitz: GMF and freeze-and-release deltaSCF, NEB S-IDPP initial path                    
  Kantharuban Sivalingam : CASSCF convergence/infrastructure, NEVPT2, NEVPT3, NEVPT4(SD), FIC-MRCI and CEPA variants
  Bernardo de Souza      : ESD, SOC TD-DFT                               
  Georgi L. Stoychev     : AutoAux, RI-MP2 NMR, DLPNO-MP2 response, X2C  
  Van Anh Tran           : RI-MP2 g-tensors                              
  Willem Van den Heuvel  : Paramagnetic NMR                              
  Zikuan Wang            : NOTCH, Electric field optimization            
  Frank Wennmohs         : Technical directorship and infrastructure     
  Hang Xu                : AUTO-CI-Response properties                   
                                                                         
[FACCTs GmbH]                                                            
  Markus Bursch, Nicolas Foglia, Miquel Garcia-Rates, Ingolf Harden, Hagen Neugebauer, Anastasios Papadopoulos, 
  Christoph Riplinger, Bernardo de Souza, Georgi L. Stoychev                                                    
                                                                 
  APM, various basis sets, CI-OPT, improved COSX, DLPNO-Multilevel,           
  DOCKER, DRACO, updates on ESD, Fragmentator, GOAT, IRC, LR-CPCM, L-BFGS, MBIS, meta-GGA TD-DFT gradient, ML-optimized integration grids, 
  MM, NACMEs, nearIR, NEB, NEB-TS, NL-DFT gradient (VV10), 2- and 3-layer-ONIOM, interface openCOSMO-RS, QMMM,   
  Crystal-QMMM, RESP, rigid body optimization, SF, symmetry and pop. for TD-DFT, various functionals, SOLVATOR                                   
                                                                         
[Other institutions]                                                     
  V. Asgeirsson          : NEB                                           
  Christoph Bannwarth    : sTDA-DFT, sTD-DFT, PBEh-3c, B97-3c, D3        
  Giovanni Bistoni       : ETS/NOCV, ADLD/ADEX, COVALED                  
  Martin Brehm           : Molecular dynamics                            
  Ronald Cardenas        : ETS/NOCV                                      
  Martina Colucci        : COVALED                                       
  Sebastian Ehlert       : rSCAN, r2SCAN, r2SCAN-3c, D4, dhf basis sets  
  Marvin Friede          : D4 for Fr, Ra, Ac-Lr                          
  Lars Goerigk           : TD-DFT with DH, B97 family of functionals     
  Stefan Grimme          : VdW corrections, initial TS optimization, DFT functionals, gCP, sTDA/sTD-DF 
  Waldemar Hujo          : DFT-NL                                        
  H. Jonsson             : NEB                                           
  Holger Kruse           : gCP                                           
  Marcel Mueller         : wB97X-3c, vDZP basis set                      
  Hagen Neugebauer       : wr2SCAN, Native XTB                           
  Gianluca Regni         : ADLD/ADEX                                     
  Tobias Risthaus        : pre 6.0 range-separated hybrid DFT and stability analysis
  Lukas Wittmann         : regularized MP2, r2SCAN double-hybrids, wr2SCAN        
                                                                         
We gratefully acknowledge several colleagues who have allowed us to      
interface, adapt or use parts of their codes:                            
  Ed Valeev, F. Pavosevic, A. Kumar             : LibInt (2-el integral package), F12 methods 
  Garnet Chan, S. Sharma, J. Yang, R. Olivares  : DMRG                   
  Ulf Ekstrom                                   : XCFun DFT Library      
  Mihaly Kallay                                 : mrcc  (arbitrary order and MRCC methods)
  Frank Weinhold                                : gennbo (NPA and NBO analysis)           
  Simon Mueller                                 : openCOSMO-RS                            
  Christopher J. Cramer and Donald G. Truhlar   : smd solvation model                     
  S Lehtola, MJT Oliveira, MAL Marques          : LibXC Library                           
  Liviu Ungur et al                             : ANISO software                          


 Your calculation uses the libint2 library for the computation of 2-el integrals
 For citations please refer to: http://libint.valeyev.net

 Your ORCA version has been built with support for libXC version: 7.0.0
 For citations please refer to: https://libxc.gitlab.io

 This ORCA versions uses:
   CBLAS   interface :  Fast vector & matrix operations
   LAPACKE interface :  Fast linear algebra routines
   SCALAPACK package :  Parallel linear algebra routines
   Shared memory     :  Shared parallel matrices
   BLAS/LAPACK       :  OpenBLAS 0.3.29  USE64BITINT DYNAMIC_ARCH NO_AFFINITY Zen SINGLE_THREADED
        Core in use  :  Zen
   Copyright (c) 2011-2014, The OpenBLAS Project


  ***********************************
  * Starting time: Wed Sep 10 13:31:27 2025
  * Host name:     wyk-Server
  * Process ID:    2267373
  * Working dir.:  /home/wyk/Documents/code/openQDC/MGMR/singlepointcalc/2/prod
  ***********************************

Your calculation utilizes the atom-pairwise dispersion correction
with the Becke-Johnson damping scheme (D3BJ)


Warning: RI is on but no J-basis has been assigned. Assigning Def2/J (nothing to worry about!)
================================================================================

----- Orbital basis set information -----
Your calculation utilizes the basis: def2-SVP
   F. Weigend and R. Ahlrichs, Phys. Chem. Chem. Phys. 7, 3297 (2005).

----- AuxJ basis set information -----
Your calculation utilizes the auxiliary basis: def2/J
   H-Rn: F. Weigend, Phys. Chem. Chem. Phys. 8, 1057 (2006).
   Fr-Lr: K. Eichkorn, F. Weigend, O. Treutler, R. Ahlrichs; Theor. Chem. Acc. 97, 119 (1997).

================================================================================
                                        WARNINGS
                       Please study these warnings very carefully!
================================================================================


================================================================================
                                       INPUT FILE
================================================================================
NAME = orca.inp
|  1> ! B3LYP def2-SVP d3 EnGrad 
|  2> %pal nprocs 6 end 
|  3> *xyz 0 1 
|  4> N   0.45470324067789 -0.65922893093521 -0.46563499047789
|  5> B   1.54565705345576 0.515154227971 0.03940041448693
|  6> N   -1.70682423097382 0.48520599603544 0.01608389206994
|  7> B   -0.77120828434944 -0.47647086023644 0.36627906728502
|  8> H   -1.54847043145661 1.17318606361105 -0.712852416171
|  9> H   1.12244623834699 1.56109719734361 -0.43640543683472
| 10> H   1.49981461643834 0.49847585768038 1.26301230956161
| 11> H   0.89125230646316 -1.56921105665461 -0.32036634822706
| 12> H   2.63041403969912 0.17129481967722 -0.40739450092811
| 13> H   -2.51046531521261 0.6857787799893 0.59822826140271
| 14> H   -0.92120039720196 -1.18543966334756 1.32469201503453
| 15> H   0.31782116411317 -0.53711143113423 -1.46974426720199
| 16> *
| 17> 
| 18>                          ****END OF INPUT****
================================================================================

                     *******************************
                     * Energy+Gradient Calculation *
                     *******************************

---------------------------------
CARTESIAN COORDINATES (ANGSTROEM)
---------------------------------
  N      0.454703   -0.659229   -0.465635
  B      1.545657    0.515154    0.039400
  N     -1.706824    0.485206    0.016084
  B     -0.771208   -0.476471    0.366279
  H     -1.548470    1.173186   -0.712852
  H      1.122446    1.561097   -0.436405
  H      1.499815    0.498476    1.263012
  H      0.891252   -1.569211   -0.320366
  H      2.630414    0.171295   -0.407395
  H     -2.510465    0.685779    0.598228
  H     -0.921200   -1.185440    1.324692
  H      0.317821   -0.537111   -1.469744

----------------------------
CARTESIAN COORDINATES (A.U.)
----------------------------
  NO LB      ZA    FRAG     MASS         X           Y           Z
   0 N     7.0000    0    14.007    0.859265   -1.245762   -0.879923
   1 B     5.0000    0    10.810    2.920869    0.973500    0.074456
   2 N     7.0000    0    14.007   -3.225430    0.916906    0.030394
   3 B     5.0000    0    10.810   -1.457372   -0.900399    0.692167
   4 H     1.0000    0     1.008   -2.926185    2.217000   -1.347096
   5 H     1.0000    0     1.008    2.121116    2.950046   -0.824687
   6 H     1.0000    0     1.008    2.834239    0.941983    2.386747
   7 H     1.0000    0     1.008    1.684223   -2.965379   -0.605405
   8 H     1.0000    0     1.008    4.970762    0.323700   -0.769864
   9 H     1.0000    0     1.008   -4.744092    1.295934    1.130488
  10 H     1.0000    0     1.008   -1.740816   -2.240156    2.503305
  11 H     1.0000    0     1.008    0.600595   -1.014994   -2.777414

--------------------------------
INTERNAL COORDINATES (ANGSTROEM)
--------------------------------
 N      0   0   0     0.000000000000     0.00000000     0.00000000
 B      1   0   0     1.680600126682     0.00000000     0.00000000
 N      1   2   0     2.492786672497   100.60271007     0.00000000
 B      3   1   2     1.386663706964    31.27862976   255.47537779
 H      3   1   2     1.014761371296    92.12780224    68.12153043
 H      2   1   3     1.224538810066   104.81838393   314.31127583
 H      2   1   3     1.224583915800   105.45327107    73.54715748
 H      1   2   3     1.019679133055   107.63100761   210.25757704
 H      2   1   3     1.222523091118   105.64153988   193.71326858
 H      3   1   2     1.012403329057   152.92142488   264.84238927
 H      4   3   1     1.201536423134   121.76440872   180.61783007
 H      1   2   3     1.020727596495   107.40157521    94.52017304

---------------------------
INTERNAL COORDINATES (A.U.)
---------------------------
 N      0   0   0     0.000000000000     0.00000000     0.00000000
 B      1   0   0     3.175873980063     0.00000000     0.00000000
 N      1   2   0     4.710684121308   100.60271007     0.00000000
 B      3   1   2     2.620414646010    31.27862976   255.47537779
 H      3   1   2     1.917621083032    92.12780224    68.12153043
 H      2   1   3     2.314042991382   104.81838393   314.31127583
 H      2   1   3     2.314128228866   105.45327107    73.54715748
 H      1   2   3     1.926914305949   107.63100761   210.25757704
 H      2   1   3     2.310233834608   105.64153988   193.71326858
 H      3   1   2     1.913165028988   152.92142488   264.84238927
 H      4   3   1     2.270574779654   121.76440872   180.61783007
 H      1   2   3     1.928895614711   107.40157521    94.52017304

---------------------
BASIS SET INFORMATION
---------------------
There are 3 groups of distinct atoms

 Group   1 Type N   : 7s4p1d contracted to 3s2p1d pattern {511/31/1}
 Group   2 Type B   : 7s4p1d contracted to 3s2p1d pattern {511/31/1}
 Group   3 Type H   : 4s1p contracted to 2s1p pattern {31/1}

Atom   0N    basis set group =>   1
Atom   1B    basis set group =>   2
Atom   2N    basis set group =>   1
Atom   3B    basis set group =>   2
Atom   4H    basis set group =>   3
Atom   5H    basis set group =>   3
Atom   6H    basis set group =>   3
Atom   7H    basis set group =>   3
Atom   8H    basis set group =>   3
Atom   9H    basis set group =>   3
Atom  10H    basis set group =>   3
Atom  11H    basis set group =>   3
---------------------------------
AUXILIARY/J BASIS SET INFORMATION
---------------------------------
There are 3 groups of distinct atoms

 Group   1 Type N   : 12s5p4d2f1g contracted to 6s4p3d1f1g pattern {711111/2111/211/2/1}
 Group   2 Type B   : 12s5p4d2f1g contracted to 6s4p3d1f1g pattern {711111/2111/211/2/1}
 Group   3 Type H   : 5s2p1d contracted to 3s1p1d pattern {311/2/1}

Atom   0N    basis set group =>   1
Atom   1B    basis set group =>   2
Atom   2N    basis set group =>   1
Atom   3B    basis set group =>   2
Atom   4H    basis set group =>   3
Atom   5H    basis set group =>   3
Atom   6H    basis set group =>   3
Atom   7H    basis set group =>   3
Atom   8H    basis set group =>   3
Atom   9H    basis set group =>   3
Atom  10H    basis set group =>   3
Atom  11H    basis set group =>   3


           ************************************************************
           *        Program running with 6 parallel MPI-processes     *
           *              working on a common directory               *
           ************************************************************
------------------------------------------------------------------------------
                             ORCA STARTUP CALCULATIONS
                           -- RI-GTO INTEGRALS CHOSEN --
------------------------------------------------------------------------------
------------------------------------------------------------------------------
                   ___                                                        
                  /   \      - P O W E R E D   B Y -                         
                 /     \                                                     
                 |  |  |   _    _      __       _____    __    __             
                 |  |  |  | |  | |    /  \     |  _  \  |  |  /  |          
                  \  \/   | |  | |   /    \    | | | |  |  | /  /          
                 / \  \   | |__| |  /  /\  \   | |_| |  |  |/  /          
                |  |  |   |  __  | /  /__\  \  |    /   |      \           
                |  |  |   | |  | | |   __   |  |    \   |  |\   \          
                \     /   | |  | | |  |  |  |  | |\  \  |  | \   \       
                 \___/    |_|  |_| |__|  |__|  |_| \__\ |__|  \__/        
                                                                              
                      - O R C A' S   B I G   F R I E N D -                    
                                      &                                       
                       - I N T E G R A L  F E E D E R -                       
                                                                              
 v1 FN, 2020, v2 2021, v3 2022-2024                                           
------------------------------------------------------------------------------


----------------------
SHARK INTEGRAL PACKAGE
----------------------

Number of atoms                             ...     12
Number of basis functions                   ...     96
Number of shells                            ...     48
Maximum angular momentum                    ...      2
Integral batch strategy                     ... SHARK/LIBINT Hybrid
RI-J (if used) integral strategy            ... SPLIT-RIJ (Revised 2003 algorithm where possible)
Printlevel                                  ...      1
Contraction scheme used                     ... SEGMENTED contraction
Prescreening option                         ... SCHWARTZ
   Thresh                                   ... 2.500e-11
   Tcut                                     ... 2.500e-12
   Tpresel                                  ... 2.500e-12 
Coulomb Range Separation                    ... NOT USED
Exchange Range Separation                   ... NOT USED
Multipole approximations                    ... NOT USED
Finite Nucleus Model                        ... NOT USED
CABS basis                                  ... NOT available
Auxiliary Coulomb fitting basis             ... AVAILABLE
   # of basis functions in Aux-J            ...    284
   # of shells in Aux-J                     ...    100
   Maximum angular momentum in Aux-J        ...      4
Auxiliary J/K fitting basis                 ... NOT available
Auxiliary Correlation fitting basis         ... NOT available
Auxiliary 'external' fitting basis          ... NOT available

Checking pre-screening integrals            ... done (  0.0 sec) Dimension = 48
   => SHARK Basis and OBASIS are compatible. Storing Pre-screening
Shell pair information
Shell pair cut-off parameter TPreSel        ...   2.5e-12
Total number of shell pairs                 ...      1176
Shell pairs after pre-screening             ...      1165
Total number of primitive shell pairs       ...      3992
Primitive shell pairs kept                  ...      3254
          la=0 lb=0:    402 shell pairs
          la=1 lb=0:    442 shell pairs
          la=1 lb=1:    135 shell pairs
          la=2 lb=0:    112 shell pairs
          la=2 lb=1:     64 shell pairs
          la=2 lb=2:     10 shell pairs

Checking whether 4 symmetric matrices of dimension 96 fit in memory
:Max Core in MB      =   4096.00
 MB in use           =      4.76
 MB left             =   4091.24
 MB needed           =      0.14
 Data fit in memory  = YES
Calculating RI/J V-Matrix + Cholesky decomp.... done (  0.0 sec)
Calculating Nuclear repulsion               ... done (  0.0 sec) ENN=    114.955491560191 Eh

Diagonalization of the overlap matrix:
Smallest eigenvalue                        ... 4.602e-03
Time for diagonalization                   ...    0.001 sec
Threshold for overlap eigenvalues          ... 1.000e-07
Number of eigenvalues below threshold      ... 0
Time for construction of square roots      ...    0.000 sec
Total time needed                          ...    0.002 sec

-------------------
DFT GRID GENERATION
-------------------

General Integration Accuracy     IntAcc      ... 4.388
Radial Grid Type                 RadialGrid  ... OptM3 with GC (2021)
Angular Grid (max. ang.)         AngularGrid ... 4 (Lebedev-302)
Angular grid pruning method      GridPruning ... 4 (adaptive)
Weight generation scheme         WeightScheme... mBecke (2022)
Basis function cutoff            BFCut       ... 1.0000e-11
Integration weight cutoff        WCut        ... 1.0000e-14
Partially contracted basis set               ... off
Rotationally invariant grid construction     ... off
Angular grids for H and He will be reduced by one unit

Total number of grid points                  ...    50048
Total number of batches                      ...      788
Average number of points per batch           ...       63
Average number of grid points per atom       ...     4171

--------------------
COSX GRID GENERATION
--------------------

GRIDX 1
-------
General Integration Accuracy     IntAcc      ... 3.816
Radial Grid Type                 RadialGrid  ... OptM3 with GC (2021)
Angular Grid (max. ang.)         AngularGrid ... 1 (Lebedev-50)
Angular grid pruning method      GridPruning ... 4 (adaptive)
Weight generation scheme         WeightScheme... mBecke (2022)
Basis function cutoff            BFCut       ... 1.0000e-11
Integration weight cutoff        WCut        ... 1.0000e-14
Partially contracted basis set               ... on
Rotationally invariant grid construction     ... off
Angular grids for H and He will be reduced by one unit

Total number of grid points                  ...     6453
Total number of batches                      ...       59
Average number of points per batch           ...      109
Average number of grid points per atom       ...      538
UseSFitting                                  ... on

GRIDX 2
-------
General Integration Accuracy     IntAcc      ... 4.020
Radial Grid Type                 RadialGrid  ... OptM3 with GC (2021)
Angular Grid (max. ang.)         AngularGrid ... 2 (Lebedev-110)
Angular grid pruning method      GridPruning ... 4 (adaptive)
Weight generation scheme         WeightScheme... mBecke (2022)
Basis function cutoff            BFCut       ... 1.0000e-11
Integration weight cutoff        WCut        ... 1.0000e-14
Partially contracted basis set               ... on
Rotationally invariant grid construction     ... off
Angular grids for H and He will be reduced by one unit

Total number of grid points                  ...    13448
Total number of batches                      ...      110
Average number of points per batch           ...      122
Average number of grid points per atom       ...     1121
UseSFitting                                  ... on

GRIDX 3
-------
General Integration Accuracy     IntAcc      ... 4.338
Radial Grid Type                 RadialGrid  ... OptM3 with GC (2021)
Angular Grid (max. ang.)         AngularGrid ... 3 (Lebedev-194)
Angular grid pruning method      GridPruning ... 4 (adaptive)
Weight generation scheme         WeightScheme... mBecke (2022)
Basis function cutoff            BFCut       ... 1.0000e-11
Integration weight cutoff        WCut        ... 1.0000e-14
Partially contracted basis set               ... on
Rotationally invariant grid construction     ... off
Angular grids for H and He will be reduced by one unit

Total number of grid points                  ...    29507
Total number of batches                      ...      236
Average number of points per batch           ...      125
Average number of grid points per atom       ...     2459
UseSFitting                                  ... on
Grids setup in   0.4 sec
Initializing property integral containers    ... done (  0.0 sec)

SHARK setup successfully completed in   0.5 seconds

Maximum memory used throughout the entire STARTUP-calculation: 14.0 MB


           ************************************************************
           *        Program running with 6 parallel MPI-processes     *
           *              working on a common directory               *
           ************************************************************
-------------------------------------------------------------------------------
                                 ORCA GUESS
                   Start orbitals & Density for SCF / CASSCF
-------------------------------------------------------------------------------

------------
SCF SETTINGS
------------
Hamiltonian:
 Density Functional     Method          .... DFT(GTOs)
 Exchange Functional    Exchange        .... B88
   X-Alpha parameter    XAlpha          ....  0.666667
   Becke's b parameter  XBeta           ....  0.004200
 Correlation Functional Correlation     .... LYP
 LDA part of GGA corr.  LDAOpt          .... VWN-5
 Gradients option       PostSCFGGA      .... off
 Hybrid DFT is turned on
   Fraction HF Exchange ScalHFX         ....  0.200000
   Scaling of DF-GGA-X  ScalDFX         ....  0.720000
   Scaling of DF-GGA-C  ScalDFC         ....  0.810000
   Scaling of DF-LDA-C  ScalLDAC        ....  1.000000
   Perturbative correction              ....  0.000000
   NL short-range parameter             ....  4.800000
 RI-approximation to the Coulomb term is turned on
   Number of AuxJ basis functions       .... 284
   RIJ-COSX (HFX calculated with COS-X)).... on


General Settings:
 Integral files         IntName         .... orca
 Hartree-Fock type      HFTyp           .... RHF
 Total Charge           Charge          ....    0
 Multiplicity           Mult            ....    1
 Number of Electrons    NEL             ....   32
 Basis Dimension        Dim             ....   96
 Nuclear Repulsion      ENuc            ....    114.9554915602 Eh

Convergence Acceleration:
 AO-DIIS                CNVDIIS         .... on
   Start iteration      DIISMaxIt       ....    12
   Startup error        DIISStart       ....  0.200000
   # of expansion vecs  DIISMaxEq       ....     5
   Bias factor          DIISBfac        ....   1.050
   Max. coefficient     DIISMaxC        ....  10.000
 MO-DIIS                CNVKDIIS        .... off
 Trust-Rad. Augm. Hess. CNVTRAH         .... auto
   Auto Start mean grad. ratio tolernc. ....  1.125000
   Auto Start start iteration           ....    50
   Auto Start num. interpolation iter.  ....    10
   Max. Number of Micro iterations      ....    24
   Max. Number of Macro iterations      .... Maxiter - #DIIS iter
   Number of Davidson start vectors     ....     2
   Converg. threshold    (grad. norm)   ....   1.000e-05
   Grad. Scal. Fac. for Micro threshold ....   0.100
   Minimum threshold for Micro iter.    ....   1.000e-02
   NR start threshold (gradient norm)   ....   1.000e-04
   Initial trust radius                 ....   0.400
   Minimum AH scaling param. (alpha)    ....   1.000
   Maximum AH scaling param. (alpha)    .... 1000.000
   Quad. conv. algorithm                .... NR
   White noise on init. David. guess    .... on
   Maximum white noise                  ....   0.010
   Pseudo random numbers                .... off
   Inactive MOs                         .... canonical
   Orbital update algorithm             .... Taylor
   Preconditioner                       .... Diag
   Full preconditioner red. dimension   ....   250
 SOSCF                 CNVSOSCF           .... on
   Start iteration     SOSCFMaxIt         ....   150
   Startup grad/error  SOSCFStart         ....  0.003300
   Hessian update      SOSCFHessUp        .... L-BFGS
   Autom. constraints  SOSCFAutoConstrain .... off
 Level Shifting         CNVShift        .... on
   Level shift para.    LevelShift      ....    0.2500
   Turn off err/grad.   ShiftErr        ....    0.0010
 Zerner damping         CNVZerner       .... off
 Static damping         CNVDamp         .... on
   Fraction old density DampFac         ....    0.7000
   Max. Damping (<1)    DampMax         ....    0.9800
   Min. Damping (>=0)   DampMin         ....    0.0000
   Turn off err/grad.   DampErr         ....    0.1000

SCF Procedure:
 Maximum # iterations   MaxIter         ....   125
 SCF integral mode      SCFMode         .... Direct
   Integral package                     .... SHARK and LIBINT hybrid scheme
 Reset frequency        DirectResetFreq ....    20
 Integral Threshold     Thresh          ....  2.500e-11 Eh
 Primitive CutOff       TCut            ....  2.500e-12 Eh

Convergence Tolerance:
 Convergence Check Mode ConvCheckMode   .... Total+1el-Energy
 Convergence forced     ConvForced      .... 0
 Energy Change          TolE            ....  1.000e-08 Eh
 1-El. energy change                    ....  1.000e-05 Eh
 Orbital Gradient       TolG            ....  1.000e-05
 Orbital Rotation angle TolX            ....  1.000e-05
 DIIS Error             TolErr          ....  5.000e-07

------------------------------
INITIAL GUESS: MODEL POTENTIAL
------------------------------
Loading Hartree-Fock densities                     ... done
Calculating cut-offs                               ... done
Initializing the effective Hamiltonian             ... done
Setting up the integral package (SHARK)            ... done
Starting the Coulomb interaction                   ... done (   0.0 sec)
Making the grid                                    ... done (   0.1 sec)
Mapping shells                                     ... done
Starting the XC term evaluation                    ... done (   0.0 sec)
  promolecular density results
     # of electrons  =     31.994222129
     EX              =    -23.156956994
     EC              =     -1.000847892
     EX+EC           =    -24.157804886
Transforming the Hamiltonian                       ... done (   0.0 sec)
Diagonalizing the Hamiltonian                      ... done (   0.0 sec)
Back transforming the eigenvectors                 ... done (   0.0 sec)
Now organizing SCF variables                       ... done
                      ------------------
                      INITIAL GUESS DONE (   0.1 sec)
                      ------------------
             **** ENERGY FILE WAS UPDATED (orca.en.tmp) ****
Finished Guess after   0.2 sec
Maximum memory used throughout the entire GUESS-calculation: 7.1 MB


           ************************************************************
           *        Program running with 6 parallel MPI-processes     *
           *              working on a common directory               *
           ************************************************************

-------------------------------------------------------------------------------------------
                                      ORCA LEAN-SCF
                              memory conserving SCF solver
-------------------------------------------------------------------------------------------

----------------------------------------D-I-I-S--------------------------------------------
Iteration    Energy (Eh)           Delta-E    RMSDP     MaxDP     DIISErr   Damp  Time(sec)
-------------------------------------------------------------------------------------------
               ***  Starting incremental Fock matrix formation  ***
    1    -163.6392426553759947     0.00e+00  1.25e-02  9.55e-02  2.73e-01  0.700   0.3
    2    -163.7416574005792427    -1.02e-01  8.85e-03  5.97e-02  1.24e-01  0.700   0.2
                               ***Turning on AO-DIIS***
    3    -163.7832242843542758    -4.16e-02  3.73e-03  2.69e-02  3.80e-02  0.700   0.2
    4    -163.8078266865969113    -2.46e-02  6.20e-03  3.59e-02  1.95e-02  0.000   0.2
    5    -163.8612540656629903    -5.34e-02  1.25e-03  8.75e-03  8.22e-03  0.000   0.2
                              *** Initializing SOSCF ***
---------------------------------------S-O-S-C-F--------------------------------------
Iteration    Energy (Eh)           Delta-E    RMSDP     MaxDP     MaxGrad    Time(sec)
--------------------------------------------------------------------------------------
    6    -163.8616126934131785    -3.59e-04  3.67e-04  2.10e-03  1.57e-03     0.2
               *** Restarting incremental Fock matrix formation ***
    7    -163.8616656890016543    -5.30e-05  2.37e-04  1.33e-03  3.27e-04     0.2
    8    -163.8616671287521740    -1.44e-06  6.15e-05  6.86e-04  2.60e-04     0.2
    9    -163.8616680398474159    -9.11e-07  2.53e-05  1.59e-04  5.89e-05     0.2
   10    -163.8616680311411073     8.71e-09  1.18e-05  9.23e-05  5.28e-05     0.2
                 **** Energy Check signals convergence ****

               *****************************************************
               *                     SUCCESS                       *
               *           SCF CONVERGED AFTER  10 CYCLES          *
               *****************************************************

Recomputing exchange energy using gridx3       ... done (    0.291 sec)
Old exchange energy                            :     -4.766517775 Eh
New exchange energy                            :     -4.766518176 Eh
Exchange energy change after final integration :     -0.000000401 Eh
Total energy after final integration           :   -163.861668487 Eh
             **** ENERGY FILE WAS UPDATED (orca.en.tmp) ****

----------------
TOTAL SCF ENERGY
----------------

Total Energy       :       -163.86166848667773 Eh           -4458.90269 eV

Components:
Nuclear Repulsion  :        114.95549156019139 Eh            3128.09795 eV
Electronic Energy  :       -278.81715964569298 Eh           -7587.00063 eV
One Electron Energy:       -447.00754791320122 Eh          -12163.69377 eV
Two Electron Energy:        168.19038826750824 Eh            4576.69314 eV

Virial components:
Potential Energy   :       -325.83741967590458 Eh           -8866.48695 eV
Kinetic Energy     :        161.97575118922683 Eh            4407.58427 eV
Virial Ratio       :          2.01164320760117

DFT components:
N(Alpha)           :       15.999970343434 electrons
N(Beta)            :       15.999970343434 electrons
N(Total)           :       31.999940686868 electrons
E(X)               :      -18.877720383818 Eh       
E(C)               :       -1.197312844676 Eh       
E(XC)              :      -20.075033228494 Eh       

---------------
SCF CONVERGENCE
---------------

  Last Energy change         ...   -8.7063e-09  Tolerance :   1.0000e-08
  Last MAX-Density change    ...    9.2316e-05  Tolerance :   1.0000e-07
  Last RMS-Density change    ...    1.1762e-05  Tolerance :   5.0000e-09
  Last DIIS Error            ...    1.5687e-03  Tolerance :   5.0000e-07
  Last Orbital Gradient      ...    5.2790e-05  Tolerance :   1.0000e-05
  Last Orbital Rotation      ...    6.0472e-05  Tolerance :   1.0000e-05


----------------
ORBITAL ENERGIES
----------------

  NO   OCC          E(Eh)            E(eV) 
   0   2.0000     -14.370797      -391.0493 
   1   2.0000     -14.342009      -390.2659 
   2   2.0000      -6.787860      -184.7071 
   3   2.0000      -6.689548      -182.0318 
   4   2.0000      -0.912759       -24.8374 
   5   2.0000      -0.867353       -23.6019 
   6   2.0000      -0.556287       -15.1373 
   7   2.0000      -0.546911       -14.8822 
   8   2.0000      -0.521037       -14.1781 
   9   2.0000      -0.496172       -13.5015 
  10   2.0000      -0.456956       -12.4344 
  11   2.0000      -0.375278       -10.2118 
  12   2.0000      -0.342303        -9.3145 
  13   2.0000      -0.310798        -8.4572 
  14   2.0000      -0.269078        -7.3220 
  15   2.0000      -0.264379        -7.1941 
  16   0.0000       0.013665         0.3718 
  17   0.0000       0.031909         0.8683 
  18   0.0000       0.058115         1.5814 
  19   0.0000       0.078476         2.1354 
  20   0.0000       0.112869         3.0713 
  21   0.0000       0.151440         4.1209 
  22   0.0000       0.160035         4.3548 
  23   0.0000       0.182975         4.9790 
  24   0.0000       0.192947         5.2504 
  25   0.0000       0.212870         5.7925 
  26   0.0000       0.222202         6.0464 
*Only the first 10 virtual orbitals were printed.

                    ********************************
                    * MULLIKEN POPULATION ANALYSIS *
                    ********************************

-----------------------
MULLIKEN ATOMIC CHARGES
-----------------------
   0 N :    0.003987
   1 B :   -0.123175
   2 N :   -0.043477
   3 B :   -0.087743
   4 H :    0.127272
   5 H :   -0.106902
   6 H :   -0.094432
   7 H :    0.150912
   8 H :   -0.091208
   9 H :    0.131723
  10 H :   -0.012252
  11 H :    0.145294
Sum of atomic charges:    0.0000000

--------------------------------
MULLIKEN REDUCED ORBITAL CHARGES
--------------------------------
  0 N s       :     3.319759  s :     3.319759
      pz      :     1.131434  p :     3.661979
      px      :     1.301278
      py      :     1.229268
      dz2     :     0.005781  d :     0.014274
      dxz     :     0.001960
      dyz     :     0.000729
      dx2y2   :     0.003774
      dxy     :     0.002030

  1 B s       :     2.900614  s :     2.900614
      pz      :     0.844768  p :     2.166125
      px      :     0.666430
      py      :     0.654927
      dz2     :     0.013726  d :     0.056435
      dxz     :     0.007866
      dyz     :     0.008025
      dx2y2   :     0.007643
      dxy     :     0.019174

  2 N s       :     3.278024  s :     3.278024
      pz      :     1.242171  p :     3.754468
      px      :     1.227830
      py      :     1.284467
      dz2     :     0.000799  d :     0.010986
      dxz     :     0.002702
      dyz     :     0.003320
      dx2y2   :     0.002260
      dxy     :     0.001906

  3 B s       :     2.901886  s :     2.901886
      pz      :     0.783389  p :     2.069553
      px      :     0.610978
      py      :     0.675187
      dz2     :     0.016541  d :     0.116303
      dxz     :     0.028988
      dyz     :     0.016536
      dx2y2   :     0.028485
      dxy     :     0.025753

  4 H s       :     0.825801  s :     0.825801
      pz      :     0.018100  p :     0.046927
      px      :     0.011273
      py      :     0.017555

  5 H s       :     1.095794  s :     1.095794
      pz      :     0.002624  p :     0.011107
      px      :     0.001768
      py      :     0.006715

  6 H s       :     1.083058  s :     1.083058
      pz      :     0.008419  p :     0.011374
      px      :     0.001593
      py      :     0.001362

  7 H s       :     0.802419  s :     0.802419
      pz      :     0.010146  p :     0.046669
      px      :     0.014546
      py      :     0.021976

  8 H s       :     1.079931  s :     1.079931
      pz      :     0.002496  p :     0.011276
      px      :     0.007260
      py      :     0.001520

  9 H s       :     0.821505  s :     0.821505
      pz      :     0.015574  p :     0.046772
      px      :     0.019853
      py      :     0.011345

 10 H s       :     0.999749  s :     0.999749
      pz      :     0.007793  p :     0.012503
      px      :     0.000563
      py      :     0.004147

 11 H s       :     0.807801  s :     0.807801
      pz      :     0.024532  p :     0.046905
      px      :     0.011625
      py      :     0.010748



                     *******************************
                     * LOEWDIN POPULATION ANALYSIS *
                     *******************************

----------------------
LOEWDIN ATOMIC CHARGES
----------------------
   0 N :    0.173694
   1 B :   -0.330663
   2 N :    0.052618
   3 B :   -0.099821
   4 H :    0.088065
   5 H :   -0.060281
   6 H :   -0.044580
   7 H :    0.113111
   8 H :   -0.058155
   9 H :    0.093088
  10 H :   -0.034998
  11 H :    0.107921

-------------------------------
LOEWDIN REDUCED ORBITAL CHARGES
-------------------------------
  0 N s       :     3.024417  s :     3.024417
      pz      :     1.195418  p :     3.764049
      px      :     1.324279
      py      :     1.244352
      dz2     :     0.015419  d :     0.037841
      dxz     :     0.005558
      dyz     :     0.002088
      dx2y2   :     0.008367
      dxy     :     0.006408

  1 B s       :     2.743651  s :     2.743651
      pz      :     0.917227  p :     2.437500
      px      :     0.776529
      py      :     0.743744
      dz2     :     0.039959  d :     0.149512
      dxz     :     0.018771
      dyz     :     0.019555
      dx2y2   :     0.024494
      dxy     :     0.046732

  2 N s       :     3.023329  s :     3.023329
      pz      :     1.280742  p :     3.892886
      px      :     1.284197
      py      :     1.327947
      dz2     :     0.002667  d :     0.031167
      dxz     :     0.007538
      dyz     :     0.009208
      dx2y2   :     0.006701
      dxy     :     0.005053

  3 B s       :     2.706212  s :     2.706212
      pz      :     0.751855  p :     2.124282
      px      :     0.678529
      py      :     0.693898
      dz2     :     0.036199  d :     0.269327
      dxz     :     0.065716
      dyz     :     0.041546
      dx2y2   :     0.067813
      dxy     :     0.058052

  4 H s       :     0.792619  s :     0.792619
      pz      :     0.049055  p :     0.119316
      px      :     0.023959
      py      :     0.046302

  5 H s       :     1.031678  s :     1.031678
      pz      :     0.007703  p :     0.028603
      px      :     0.005784
      py      :     0.015116

  6 H s       :     1.015309  s :     1.015309
      pz      :     0.019169  p :     0.029270
      px      :     0.005083
      py      :     0.005019

  7 H s       :     0.771159  s :     0.771159
      pz      :     0.020228  p :     0.115730
      px      :     0.035267
      py      :     0.060235

  8 H s       :     1.028476  s :     1.028476
      pz      :     0.007794  p :     0.029679
      px      :     0.016640
      py      :     0.005245

  9 H s       :     0.787864  s :     0.787864
      pz      :     0.040403  p :     0.119047
      px      :     0.052570
      py      :     0.026075

 10 H s       :     1.002759  s :     1.002759
      pz      :     0.017464  p :     0.032239
      px      :     0.004348
      py      :     0.010426

 11 H s       :     0.776007  s :     0.776007
      pz      :     0.065455  p :     0.116073
      px      :     0.026955
      py      :     0.023662



                      *****************************
                      * MAYER POPULATION ANALYSIS *
                      *****************************

  NA   - Mulliken gross atomic population
  ZA   - Total nuclear charge
  QA   - Mulliken gross atomic charge
  VA   - Mayer's total valence
  BVA  - Mayer's bonded valence
  FA   - Mayer's free valence

  ATOM       NA         ZA         QA         VA         BVA        FA
  0 N      6.9960     7.0000     0.0040     3.6094     3.6094     0.0000
  1 B      5.1232     5.0000    -0.1232     3.6497     3.6497     0.0000
  2 N      7.0435     7.0000    -0.0435     3.4960     3.4960     0.0000
  3 B      5.0877     5.0000    -0.0877     3.7735     3.7735     0.0000
  4 H      0.8727     1.0000     0.1273     1.0028     1.0028     0.0000
  5 H      1.1069     1.0000    -0.1069     0.9679     0.9679    -0.0000
  6 H      1.0944     1.0000    -0.0944     0.9624     0.9624     0.0000
  7 H      0.8491     1.0000     0.1509     0.9793     0.9793     0.0000
  8 H      1.0912     1.0000    -0.0912     0.9597     0.9597    -0.0000
  9 H      0.8683     1.0000     0.1317     0.9921     0.9921    -0.0000
 10 H      1.0123     1.0000    -0.0123     0.9621     0.9621     0.0000
 11 H      0.8547     1.0000     0.1453     0.9813     0.9813     0.0000

  Mayer bond orders larger than 0.100000
B(  0-N ,  1-B ) :   0.7038 B(  0-N ,  3-B ) :   1.0366 B(  0-N ,  7-H ) :   0.9485 
B(  0-N , 11-H ) :   0.9419 B(  1-B ,  5-H ) :   0.9718 B(  1-B ,  6-H ) :   0.9329 
B(  1-B ,  8-H ) :   0.9702 B(  2-N ,  3-B ) :   1.5828 B(  2-N ,  4-H ) :   0.9406 
B(  2-N ,  9-H ) :   0.9600 B(  3-B , 10-H ) :   0.9382 

-------
TIMINGS
-------

Total SCF time: 0 days 0 hours 0 min 2 sec 

Total time                  ....       2.479 sec
Sum of individual times     ....       2.276 sec  ( 91.8%)

SCF preparation             ....       0.138 sec  (  5.5%)
Fock matrix formation       ....       2.040 sec  ( 82.3%)
  Startup                   ....       0.003 sec  (  0.1% of F)
  Split-RI-J                ....       0.147 sec  (  7.2% of F)
  Chain of spheres X        ....       1.538 sec  ( 75.4% of F)
  XC integration            ....       0.470 sec  ( 23.0% of F)
    XC Preparation          ....       0.000 sec  (  0.0% of XC)
    Basis function eval.    ....       0.150 sec  ( 31.9% of XC)
    Density eval.           ....       0.075 sec  ( 15.9% of XC)
    XC-Functional eval.     ....       0.034 sec  (  7.3% of XC)
    XC-Potential eval.      ....       0.091 sec  ( 19.4% of XC)
Diagonalization             ....       0.000 sec  (  0.0%)
Density matrix formation    ....       0.013 sec  (  0.5%)
Total Energy calculation    ....       0.008 sec  (  0.3%)
Population analysis         ....       0.008 sec  (  0.3%)
Orbital Transformation      ....       0.008 sec  (  0.3%)
Orbital Orthonormalization  ....       0.000 sec  (  0.0%)
DIIS solution               ....       0.040 sec  (  1.6%)
SOSCF solution              ....       0.021 sec  (  0.9%)
Finished LeanSCF after   2.5 sec

Maximum memory used throughout the entire LEANSCF-calculation: 8.7 MB


-------------------------------------------------------------------------------
                          DFT DISPERSION CORRECTION                            
                                                                               
                              DFTD3 V3.1  Rev 1                                
                          USING Becke-Johnson damping                          
-------------------------------------------------------------------------------
The B3LYP functional is recognized
Active option DFTDOPT                   ...         4   

molecular C6(AA) [au] = 1080.604318 


            DFT-D V3
 parameters
 s6 scaling factor         :     1.0000 
 a1 scaling factor         :     0.3981 
 s8 scaling factor         :     1.9889 
 a2 scaling factor         :     4.4211 
 ad hoc parameters k1-k3   :    16.0000     1.3333    -4.0000 

 Edisp/kcal,au: -8.079772255787  -0.012875935309 
 E6   /kcal   :  -3.930507402 
 E8   /kcal   :  -4.149264854 
 % E8         :  51.353735265 

-------------------------   ----------------
Dispersion correction           -0.012875935
-------------------------   ----------------


-------------------------   --------------------
FINAL SINGLE POINT ENERGY      -163.874544421987
-------------------------   --------------------



           ************************************************************
           *        Program running with 6 parallel MPI-processes     *
           *              working on a common directory               *
           ************************************************************
------------------------------------------------------------------------------
                         ORCA SCF GRADIENT CALCULATION
------------------------------------------------------------------------------

Nuc. rep. gradient        (SHARK) ... done (  0.0 sec)
HCore & Overlap gradient  (SHARK) ... done (  0.0 sec)
Split-RIJ-J gradient      (SHARK) ... done (  0.1 sec)
done (  1.3 sec)
XC gradient                       ... done (  0.2 sec)
Dispersion correction             ... done (  0.0 sec)

-------------------
DISPERSION GRADIENT
-------------------

   1   N   :    0.000222256   -0.000077057   -0.000052528
   2   B   :    0.000396284    0.000098113    0.000016712
   3   N   :   -0.000507682    0.000107147    0.000025950
   4   B   :   -0.000206211   -0.000153177    0.000101397
   5   H   :   -0.000256200    0.000147253   -0.000071247
   6   H   :    0.000281131    0.000039154    0.000041207
   7   H   :    0.000227343    0.000101487   -0.000052890
   8   H   :    0.000078846   -0.000191521   -0.000054380
   9   H   :    0.000047585    0.000105194    0.000053138
  10   H   :   -0.000196854    0.000071547    0.000039147
  11   H   :   -0.000135982   -0.000143415    0.000141016
  12   H   :    0.000049484   -0.000104726   -0.000187522

Difference to translation invariance:
           :    0.0000000000    0.0000000000    0.0000000000

Difference to rotation invariance:
           :    0.0000000000    0.0000000000    0.0000000000

Norm of the Dispersion gradient    ...    0.0010127121
RMS gradient                       ...    0.0001687853
MAX gradient                       ...    0.0005076824

------------------
CARTESIAN GRADIENT
------------------

   1   N   :   -0.000052118    0.000156111   -0.000002592
   2   B   :   -0.000040515   -0.000073055    0.000045919
   3   N   :    0.000007323   -0.000113000   -0.000193734
   4   B   :    0.000050889    0.000062195   -0.000021584
   5   H   :   -0.000004948   -0.000003698    0.000047783
   6   H   :   -0.000024223   -0.000026116    0.000005888
   7   H   :    0.000034197   -0.000022456   -0.000041165
   8   H   :    0.000014344   -0.000011437    0.000082993
   9   H   :    0.000033541   -0.000001843   -0.000032073
  10   H   :    0.000057132   -0.000018369    0.000036444
  11   H   :   -0.000021527    0.000004415    0.000048909
  12   H   :   -0.000054095    0.000047253    0.000023213

Difference to translation invariance:
           :   -0.0000000000    0.0000000000   -0.0000000000

Difference to rotation invariance:
           :   -0.0001052448    0.0000325104    0.0000841220

Norm of the Cartesian gradient     ...    0.0003511937
RMS gradient                       ...    0.0000585323
MAX gradient                       ...    0.0001937336

-------
TIMINGS
-------

Total SCF gradient time     ....        1.661 sec

Densities                   ....       0.000 sec  (  0.0%)
One electron gradient       ....       0.019 sec  (  1.2%)
RI-J Coulomb gradient       ....       0.108 sec  (  6.5%)
COSX gradient               ....       1.258 sec  ( 75.7%)
XC gradient                 ....       0.247 sec  ( 14.9%)

Maximum memory used throughout the entire SCFGRAD-calculation: 27.0 MB


           ************************************************************
           *        Program running with 6 parallel MPI-processes     *
           *              working on a common directory               *
           ************************************************************

------------------------------------------------------------------------------
                              ORCA PROPERTY CALCULATIONS
------------------------------------------------------------------------------

GBWName                                 ... orca.gbw
Number of atoms                         ...     12
Number of basis functions               ...     96
Max core memory                         ...   4096 MB

Electric properties:
Dipole moment                           ... YES
Quadrupole moment                       ...  NO
Static polarizability (Dipole/Dipole)   ...  NO
Static polarizability (Dipole/Quad.)    ...  NO
Static polarizability (Quad./Quad.)     ...  NO
Static polarizability (Velocity)        ...  NO
Static hyperpolarizability              ...  NO

Atomic electric properties:
Dipole moment                           ...  NO
Quadrupole moment                       ...  NO
Static polarizability                   ...  NO

Choice of electric origin               ... Center of mass
Position of electric origin             ...    -0.251313    -0.039791    -0.067914

General magnetic properties:
Magnetizability                         ...  NO

EPR properties:
g-Tensor (aka g-matrix)                 ...  NO
Zero-Field splitting spin-orbit         ...  NO
Zero-field splitting spin-spin          ...  NO
Hyperfine couplings                     ...  NO (   0 nuclei)
Quadrupole couplings                    ...  NO (   0 nuclei)
Contact density                         ...  NO (   0 nuclei)

NMR properties:
Chemical shifts                         ...  NO (   0 nuclei)
Spin-rotation constants                 ...  NO (   0 nuclei)
Spin-spin couplings                     ...  NO (   0 nuclei,    0 pairs)

Choice of magnetic origin               ... GIAO
Position of magnetic origin             ...     0.000000     0.000000     0.000000

Properties with geometric perturbations:
SCF Hessian                             ...  NO
IR spectrum                             ...  NO
VCD spectrum                            ...  NO
X-ray spectroscopy properties:
SCF XES/XAS/RIXS spectra                ...  NO

SCF SOC stabilization energy            ...  NO
Diagonal Born-Oppenheimer correction    ...  NO

-------------
DIPOLE MOMENT
-------------

Method             : SCF
Type of density    : Electron Density
Multiplicity       :   1
Irrep              :   0
Energy             :  -163.8616684866777291 Eh
Basis              : AO
                                X                 Y                 Z
Electronic contribution:     -3.296799288      -1.622781634      -0.511777947
Nuclear contribution   :      1.596173885       0.844961359      -0.244258767
                        -----------------------------------------
Total Dipole Moment    :     -1.700625403      -0.777820275      -0.756036715
                        -----------------------------------------
Magnitude (a.u.)       :      2.017107497
Magnitude (Debye)      :      5.127079801



--------------------
Rotational spectrum 
--------------------
 
Rotational constants in cm-1:             0.499632             0.156922             0.140048 
Rotational constants in MHz :         14978.590253          4704.403573          4198.532335 

Dipole components along the rotational axes: 
x,y,z [a.u.] :     1.569119    -0.974333    -0.810719 
x,y,z [Debye]:     3.988383    -2.476557    -2.060684 

 

Dipole moment calculation done in   0.0 sec 

Maximum memory used throughout the entire PROP-calculation: 5.1 MB

--------------------------------
SUGGESTED CITATIONS FOR THIS RUN
--------------------------------

Below you find a list of papers that are relevant to this ORCA run
We neither can nor want to force you to cite these papers, but we appreciate if you do
You receive ORCA, which is the product of decades of hard work by many enthusiastic individuals, for free
The only thing we kindly ask in return is that you cite our papers,
We deeply appreciate it, if you show your appreciation for ORCA by not just citing the generic ORCA reference.

Please note that relegating all ORCA citations to the supporting information does *not* help us.
SI sections are not indexed - citations you put there will not count into any citation statistics
But we need these citations in order to attract the funding resources that allow us to do what we are doing

Therefore, if you are a happy ORCA user, please consider citing a few of the papers listed below in the main body of your paper

In addition to the list printed below, the program has created the file orca.bibtex that contains the list in bibtex format
You can import this file easily into all common literature databanks and citation aid programs


List of essential papers. We consider these as the minimum necessary citations

  1. Neese, F.
     Software update: the ORCA program system, version 6.0
     WIRES Comput. Molec. Sci. 2025 15(1), e70019
     doi.org/10.1002/wcms.7019

List of papers to cite with high priority. The work reported in these papers was absolutely
necessary for this run to complete.
Our perspective: the developers of density functionals and basis sets usually get cited in chemistry papers
Good! But without the algorithms to do something with them, the functionals or basis sets would not do anything.
Hence, in our opinion, the algorithm design and method developments papers are equally worthy of getting cited

  1. Neese, F.
     An improvement of the resolution of the identity approximation for the formation of the Coulomb matrix
     J. Comp. Chem. 2003 24(14), 1740-1747
     doi.org/10.1002/jcc.10318
  2. Neese, F.; Wennmohs, F.; Hansen, A.; Becker, U.
     Efficient, approximate and parallel Hartree-Fock and hybrid DFT calculations. A 'chain-of-spheres' algorithm for the Hartree-Fock exchange
     Chem. Phys. 2009 356(1-3), 98-109
     doi.org/10.1016/j.chemphys.2008.10.036
  3. Grimme, S.; Antony, J.; Ehrlich, S.; Krieg, H.
     A consistent and accurate ab initio parametrization of density functional dispersion correction (DFT-D) for the 94 elements H-Pu
     J. Chem. Phys. 2010 132 , 154104
     doi.org/10.1063/1.3382344
  4. Grimme, S.; Ehrlich, S.; Goerigk, L.
     Effect of the damping function in dispersion corrected density functional theory
     J. Comput. Chem. 2011 32(7), 1456-1465
     doi.org/10.1002/jcc.21759
  5. Helmich-Paris, B.; de Souza, B.; Neese, F.; Izsák, R.
     An improved chain of spheres for exchange algorithm
     J. Chem. Phys. 2021 155(10), 104109
     doi.org/10.1063/5.0058766
  6. Neese, F.
     The SHARK Integral Generation and Digestion System
     J. Comp. Chem. 2022 44(3), 381
     doi.org/10.1002/jcc.26942

List of suggested additional citations. These are papers that are important in the 'surrounding' of 
of this run, or papers that preceded the highly important papers. If you like your results we are grateful for a citation.

  1. Izsak, R.; Neese, F.
     An overlap fitted chain of spheres exchange method
     J. Chem. Phys. 2011 135 , 144105
     doi.org/10.1063/1.3646921
  2. Izsak, R.; Hansen, A.; Neese, F.
     The resolution of identity and chain of spheres approximations for the LPNO-CCSD singles Fock term
     Molec. Phys. 2012 110 , 2413-2417
     doi.org/10.1080/00268976.2012.687466
  3. Neese, F.
     The ORCA program system
     WIRES Comput. Molec. Sci. 2012 2(1), 73-78
     doi.org/10.1002/wcms.81
  4. Izsak, R.; Neese, F.; Klopper, W.
     Robust fitting techniques in the chain of spheres approximation to the Fock exchange: The role of the complementary space
     J. Chem. Phys. 2013 139 , 
     doi.org/10.1063/1.4819264
  5. Neese, F.
     Software update: the ORCA program system, version 4.0
     WIRES Comput. Molec. Sci. 2018 8(1), 1-6
     doi.org/10.1002/wcms.1327
  6. Neese, F.; Wennmohs, F.; Becker, U.; Riplinger, C.
     The ORCA quantum chemistry program package
     J. Chem. Phys. 2020 152(22), 224108
     doi.org/10.1063/5.0004608
  7. Neese, F.
     Software update: The ORCA program system—Version 5.0
     WIRES Comput. Molec. Sci. 2022 12(1), e1606
     doi.org/10.1002/wcms.1606

List of optional additional citations

  1. Neese, F.
     Approximate second-order SCF convergence for spin unrestricted wavefunctions
     Chem. Phys. Lett. 2000 325(1-3), 93-98
     doi.org/10.1016/s0009-2614(00)00662-x

Timings for individual modules:

Sum of individual times          ...        6.715 sec (=   0.112 min)
Startup calculation              ...        0.935 sec (=   0.016 min)  13.9 %
SCF iterations                   ...        3.388 sec (=   0.056 min)  50.5 %
Property calculations            ...        0.372 sec (=   0.006 min)   5.5 %
SCF Gradient evaluation          ...        2.019 sec (=   0.034 min)  30.1 %
                             ****ORCA TERMINATED NORMALLY****
TOTAL RUN TIME: 0 days 0 hours 0 minutes 7 seconds 502 msec
