
                                 *****************
                                 * O   R   C   A *
                                 *****************

                                            #,                                       
                                            ###                                      
                                            ####                                     
                                            #####                                    
                                            ######                                   
                                           ########,                                 
                                     ,,################,,,,,                         
                               ,,#################################,,                 
                          ,,##########################################,,             
                       ,#########################################, ''#####,          
                    ,#############################################,,   '####,        
                  ,##################################################,,,,####,       
                ,###########''''           ''''###############################       
              ,#####''   ,,,,##########,,,,          '''####'''          '####       
            ,##' ,,,,###########################,,,                        '##       
           ' ,,###''''                  '''############,,,                           
         ,,##''                                '''############,,,,        ,,,,,,###''
      ,#''                                            '''#######################'''  
     '                                                          ''''####''''         
             ,#######,   #######,   ,#######,      ##                                
            ,#'     '#,  ##    ##  ,#'     '#,    #''#        ,####,    ,#,          
            ##       ##  ##   ,#'  ##            #'  '#       #'       ,# #          
            ##       ##  #######   ##           ,######,      #####,      #          
            '#,     ,#'  ##    ##  '#,     ,#' ,#      #,     #,   #      #          
             '#######'   ##     ##  '#######'  #'      '#     '####' #    #          



                #########################################################
                #                        -***-                          #
                #          Department of theory and spectroscopy        #
                #                                                       #
                #                      Frank Neese                      #
                #                                                       #
                #     Directorship, Architecture, Infrastructure        #
                #                    SHARK, DRIVERS                     #
                #        Core code/Algorithms in most modules           #
                #                                                       #
                #        Max Planck Institute fuer Kohlenforschung      #
                #                Kaiser Wilhelm Platz 1                 #
                #                 D-45470 Muelheim/Ruhr                 #
                #                      Germany                          #
                #                                                       #
                #                  All rights reserved                  #
                #                        -***-                          #
                #########################################################


                         Program Version 6.1.0  -  RELEASE   -
                                (GIT: $679e74b$)
                          ($2025-06-10 18:02:51 +0200$)


 With contributions from (in alphabetic order):
[Max-Planck-Institut fuer Kohlenforschung]                               
  Daniel Aravena         : Magnetic Suceptibility                        
  Michael Atanasov       : Ab Initio Ligand Field Theory (pilot matlab implementation)
  Alexander A. Auer      : GIAO ZORA, VPT2 properties, NMR spectrum      
  Ute Becker             : All parallelization in ORCA, NUMFREQ, NUMCALC 
  Giovanni Bistoni       : ED, misc. LED, open-shell LED, HFLD           
  Dmytro Bykov           : pre 5.0 version of the SCF Hessian            
  Marcos Casanova-Páez   : Triplet and SCS-CIS(D). UHF-(DLPNO)-IP/EA/STEOM-CCSD. UHF-CVS-IP/STEOM-CCSD   
  Vijay G. Chilkuri      : MRCI spin determinant printing, contributions to CSF-ICE 
  Pauline Colinet        : FMM embedding                                 
  Dipayan Datta          : RHF DLPNO-CCSD density                        
  Achintya Kumar Dutta   : EOM-CC, STEOM-CC                              
  Nicolas Foglia         : Exact transition moments, OPA infrastructure, MCD improvements    
  Dmitry Ganyushin       : Spin-Orbit,Spin-Spin,Magnetic field MRCI      
  Miquel Garcia-Rates    : C-PCM and meta-GGA Hessian, CCSD/C-PCM, Gaussian charge scheme 
  Tiago L. C. Gouveia    : GS-ROHF, GS-ROCIS                             
  Yang Guo               : DLPNO-NEVPT2, F12-NEVPT2, CIM, IAO-localization        
  Andreas Hansen         : Spin unrestricted coupled pair/coupled cluster methods 
  Ingolf Harden          : AUTO-CI MPn and infrastructure                
  Benjamin Helmich-Paris : MC-RPA, TRAH-(SCF,CASSCF), AVAS, COSX integrals, SCF dyn. polar., MC-PDFT, srDFT 
  Lee Huntington         : MR-EOM, pCC                                   
  Robert Izsak           : Overlap fitted RIJCOSX, COSX-SCS-MP3, EOM     
  Riya Kayal             : Wick's Theorem for AUTO-CI, AUTO-CI UHF-CCSDT 
  Emily Kempfer          : AUTO-CI RHF CISDT and CCSDT, approximate NEVPT4
  Christian Kollmar      : KDIIS, OOCD, Brueckner-CCSD(T), CCSD density, CASPT2, CASPT2-K, improved NEVPT2 
  Axel Koslowski         : Symmetry handling                             
  Simone Kossmann        : meta-GGA functionals, TD-DFT gradient, OOMP2, (MP2 Hessian; deprecated post 5.0) 
  Lucas Lang             : DCDCAS, Hyperfine gauge corrections, ICE-SOC+SSC
  Marvin Lechner         : AUTO-CI (C++ implementation), FIC-MRCC        
  Spencer Leger          : CASSCF response                               
  Dagmar Lenk            : GEPOL surface, SMD, ORCA-2-JSON               
  Dimitrios Liakos       : Extrapolation schemes; Compound Job, Property file
  Dimitrios Manganas     : Further ROCIS development; embedding schemes. LFT, Crystal Embedding 
  Dimitrios Pantazis     : SARC Basis sets                               
  Anastasios Papadopoulos: AUTO-CI, single reference methods and gradients 
  Taras Petrenko         : pre 6.0 DFT Hessian and TD-DFT gradient,  ECA, NRVS 
  Petra Pikulova         : Analytic Raman intensities                    
  Peter Pinski           : DLPNO-MP2, DLPNO-MP2 Gradient                 
  Shashank Vittal Rao    : ES-AILFT, MagRelax                            
  Christoph Reimann      : Effective Core Potentials                     
  Marius Retegan         : Local ZFS, SOC                                
  Christoph Riplinger    : Optimizer, TS searches, QM/MM, DLPNO-CCSD(T), (RO)-DLPNO pert. Triples 
  Michael Roemelt        : Original ROCIS implementation, recursive CI coupling coefficients
  Masaaki Saitow         : Open-shell DLPNO-CCSD energy and density      
  Barbara Sandhoefer     : DKH picture change effects                    
  Yorick L. A. Schmerwitz: GMF and freeze-and-release deltaSCF, NEB S-IDPP initial path                    
  Kantharuban Sivalingam : CASSCF convergence/infrastructure, NEVPT2, NEVPT3, NEVPT4(SD), FIC-MRCI and CEPA variants
  Bernardo de Souza      : ESD, SOC TD-DFT                               
  Georgi L. Stoychev     : AutoAux, RI-MP2 NMR, DLPNO-MP2 response, X2C  
  Van Anh Tran           : RI-MP2 g-tensors                              
  Willem Van den Heuvel  : Paramagnetic NMR                              
  Zikuan Wang            : NOTCH, Electric field optimization            
  Frank Wennmohs         : Technical directorship and infrastructure     
  Hang Xu                : AUTO-CI-Response properties                   
                                                                         
[FACCTs GmbH]                                                            
  Markus Bursch, Nicolas Foglia, Miquel Garcia-Rates, Ingolf Harden, Hagen Neugebauer, Anastasios Papadopoulos, 
  Christoph Riplinger, Bernardo de Souza, Georgi L. Stoychev                                                    
                                                                 
  APM, various basis sets, CI-OPT, improved COSX, DLPNO-Multilevel,           
  DOCKER, DRACO, updates on ESD, Fragmentator, GOAT, IRC, LR-CPCM, L-BFGS, MBIS, meta-GGA TD-DFT gradient, ML-optimized integration grids, 
  MM, NACMEs, nearIR, NEB, NEB-TS, NL-DFT gradient (VV10), 2- and 3-layer-ONIOM, interface openCOSMO-RS, QMMM,   
  Crystal-QMMM, RESP, rigid body optimization, SF, symmetry and pop. for TD-DFT, various functionals, SOLVATOR                                   
                                                                         
[Other institutions]                                                     
  V. Asgeirsson          : NEB                                           
  Christoph Bannwarth    : sTDA-DFT, sTD-DFT, PBEh-3c, B97-3c, D3        
  Giovanni Bistoni       : ETS/NOCV, ADLD/ADEX, COVALED                  
  Martin Brehm           : Molecular dynamics                            
  Ronald Cardenas        : ETS/NOCV                                      
  Martina Colucci        : COVALED                                       
  Sebastian Ehlert       : rSCAN, r2SCAN, r2SCAN-3c, D4, dhf basis sets  
  Marvin Friede          : D4 for Fr, Ra, Ac-Lr                          
  Lars Goerigk           : TD-DFT with DH, B97 family of functionals     
  Stefan Grimme          : VdW corrections, initial TS optimization, DFT functionals, gCP, sTDA/sTD-DF 
  Waldemar Hujo          : DFT-NL                                        
  H. Jonsson             : NEB                                           
  Holger Kruse           : gCP                                           
  Marcel Mueller         : wB97X-3c, vDZP basis set                      
  Hagen Neugebauer       : wr2SCAN, Native XTB                           
  Gianluca Regni         : ADLD/ADEX                                     
  Tobias Risthaus        : pre 6.0 range-separated hybrid DFT and stability analysis
  Lukas Wittmann         : regularized MP2, r2SCAN double-hybrids, wr2SCAN        
                                                                         
We gratefully acknowledge several colleagues who have allowed us to      
interface, adapt or use parts of their codes:                            
  Ed Valeev, F. Pavosevic, A. Kumar             : LibInt (2-el integral package), F12 methods 
  Garnet Chan, S. Sharma, J. Yang, R. Olivares  : DMRG                   
  Ulf Ekstrom                                   : XCFun DFT Library      
  Mihaly Kallay                                 : mrcc  (arbitrary order and MRCC methods)
  Frank Weinhold                                : gennbo (NPA and NBO analysis)           
  Simon Mueller                                 : openCOSMO-RS                            
  Christopher J. Cramer and Donald G. Truhlar   : smd solvation model                     
  S Lehtola, MJT Oliveira, MAL Marques          : LibXC Library                           
  Liviu Ungur et al                             : ANISO software                          


 Your calculation uses the libint2 library for the computation of 2-el integrals
 For citations please refer to: http://libint.valeyev.net

 Your ORCA version has been built with support for libXC version: 7.0.0
 For citations please refer to: https://libxc.gitlab.io

 This ORCA versions uses:
   CBLAS   interface :  Fast vector & matrix operations
   LAPACKE interface :  Fast linear algebra routines
   SCALAPACK package :  Parallel linear algebra routines
   Shared memory     :  Shared parallel matrices
   BLAS/LAPACK       :  OpenBLAS 0.3.29  USE64BITINT DYNAMIC_ARCH NO_AFFINITY Zen SINGLE_THREADED
        Core in use  :  Zen
   Copyright (c) 2011-2014, The OpenBLAS Project


  ***********************************
  * Starting time: Wed Sep 10 13:33:45 2025
  * Host name:     wyk-Server
  * Process ID:    2276588
  * Working dir.:  /home/wyk/Documents/code/openQDC/MGMR/singlepointcalc/17/sp
  ***********************************

Your calculation utilizes the atom-pairwise dispersion correction
with the Becke-Johnson damping scheme (D3BJ)


Warning: RI is on but no J-basis has been assigned. Assigning Def2/J (nothing to worry about!)
================================================================================

----- Orbital basis set information -----
Your calculation utilizes the basis: def2-SVP
   F. Weigend and R. Ahlrichs, Phys. Chem. Chem. Phys. 7, 3297 (2005).

----- AuxJ basis set information -----
Your calculation utilizes the auxiliary basis: def2/J
   H-Rn: F. Weigend, Phys. Chem. Chem. Phys. 8, 1057 (2006).
   Fr-Lr: K. Eichkorn, F. Weigend, O. Treutler, R. Ahlrichs; Theor. Chem. Acc. 97, 119 (1997).

================================================================================
                                        WARNINGS
                       Please study these warnings very carefully!
================================================================================


================================================================================
                                       INPUT FILE
================================================================================
NAME = orca.inp
|  1> ! B3LYP def2-SVP d3 EnGrad 
|  2> %pal nprocs 6 end 
|  3> *xyz 0 1 
|  4> H   -0.59215382231151 0.62644642468121 -1.7642538890026
|  5> C   -0.36073807984053 1.08877570338537 -0.80119902546226
|  6> C   -0.11806025490152 0.23461083302743 0.33454453126683
|  7> H   -0.460480867737 2.1792237988947 -0.72488293082962
|  8> H   0.01074114281634 0.72628487863802 1.30575310156742
|  9> O   1.18015245508012 0.3257190014204 -0.47159841972739
| 10> H   1.77225593647672 0.93557666048469 0.00509781487829
| 11> O   0.7908702583067 -1.73333560726466 1.02637087269911
| 12> C   -0.33025622864604 -1.30306156313959 0.50623786390622
| 13> H   -1.27988340866853 -1.40407847994824 1.11639423075276
| 14> H   -0.61244713057475 -1.67616165017935 -0.53246415004875
| 15> *
| 16> 
| 17>                          ****END OF INPUT****
================================================================================

                     *******************************
                     * Energy+Gradient Calculation *
                     *******************************

---------------------------------
CARTESIAN COORDINATES (ANGSTROEM)
---------------------------------
  H     -0.592154    0.626446   -1.764254
  C     -0.360738    1.088776   -0.801199
  C     -0.118060    0.234611    0.334545
  H     -0.460481    2.179224   -0.724883
  H      0.010741    0.726285    1.305753
  O      1.180152    0.325719   -0.471598
  H      1.772256    0.935577    0.005098
  O      0.790870   -1.733336    1.026371
  C     -0.330256   -1.303062    0.506238
  H     -1.279883   -1.404078    1.116394
  H     -0.612447   -1.676162   -0.532464

----------------------------
CARTESIAN COORDINATES (A.U.)
----------------------------
  NO LB      ZA    FRAG     MASS         X           Y           Z
   0 H     1.0000    0     1.008   -1.119009    1.183812   -3.333957
   1 C     6.0000    0    12.011   -0.681696    2.057488   -1.514047
   2 C     6.0000    0    12.011   -0.223102    0.443350    0.632198
   3 H     1.0000    0     1.008   -0.870183    4.118136   -1.369830
   4 H     1.0000    0     1.008    0.020298    1.372480    2.467516
   5 O     8.0000    0    15.999    2.230165    0.615520   -0.891192
   6 H     1.0000    0     1.008    3.349078    1.767984    0.009633
   7 O     8.0000    0    15.999    1.494528   -3.275530    1.939560
   8 C     6.0000    0    12.011   -0.624094   -2.462429    0.956651
   9 H     1.0000    0     1.008   -2.418629   -2.653324    2.109679
  10 H     1.0000    0     1.008   -1.157357   -3.167486   -1.006211

--------------------------------
INTERNAL COORDINATES (ANGSTROEM)
--------------------------------
 H      0   0   0     0.000000000000     0.00000000     0.00000000
 C      1   0   0     1.093058222603     0.00000000     0.00000000
 C      2   1   0     1.441666944590   118.62909051     0.00000000
 H      2   1   3     1.097656512319   117.52980231   188.10521381
 H      3   2   1     1.096165705633   116.87338207   186.01299622
 O      3   2   1     1.530857078941    72.09962200    82.29507195
 H      6   3   2     0.974552305979   107.15124252   103.19087975
 O      3   2   1     2.275432169149   145.00323925    36.27101455
 C      8   3   2     1.308662943477    41.63330168   276.00421161
 H      9   8   3     1.133263866239   118.33174153   243.51738700
 H      9   8   3     1.139182713121   117.83509026   115.84082779

---------------------------
INTERNAL COORDINATES (A.U.)
---------------------------
 H      0   0   0     0.000000000000     0.00000000     0.00000000
 C      1   0   0     2.065580689150     0.00000000     0.00000000
 C      2   1   0     2.724355701601   118.62909051     0.00000000
 H      2   1   3     2.074270197399   117.52980231   188.10521381
 H      3   2   1     2.071452981043   116.87338207   186.01299622
 O      3   2   1     2.892900629373    72.09962200    82.29507195
 H      6   3   2     1.841636961481   107.15124252   103.19087975
 O      3   2   1     4.299943636006   145.00323925    36.27101455
 C      8   3   2     2.473014564783    41.63330168   276.00421161
 H      9   8   3     2.141558344660   118.33174153   243.51738700
 H      9   8   3     2.152743344297   117.83509026   115.84082779

---------------------
BASIS SET INFORMATION
---------------------
There are 3 groups of distinct atoms

 Group   1 Type H   : 4s1p contracted to 2s1p pattern {31/1}
 Group   2 Type C   : 7s4p1d contracted to 3s2p1d pattern {511/31/1}
 Group   3 Type O   : 7s4p1d contracted to 3s2p1d pattern {511/31/1}

Atom   0H    basis set group =>   1
Atom   1C    basis set group =>   2
Atom   2C    basis set group =>   2
Atom   3H    basis set group =>   1
Atom   4H    basis set group =>   1
Atom   5O    basis set group =>   3
Atom   6H    basis set group =>   1
Atom   7O    basis set group =>   3
Atom   8C    basis set group =>   2
Atom   9H    basis set group =>   1
Atom  10H    basis set group =>   1
---------------------------------
AUXILIARY/J BASIS SET INFORMATION
---------------------------------
There are 3 groups of distinct atoms

 Group   1 Type H   : 5s2p1d contracted to 3s1p1d pattern {311/2/1}
 Group   2 Type C   : 12s5p4d2f1g contracted to 6s4p3d1f1g pattern {711111/2111/211/2/1}
 Group   3 Type O   : 12s5p4d2f1g contracted to 6s4p3d1f1g pattern {711111/2111/211/2/1}

Atom   0H    basis set group =>   1
Atom   1C    basis set group =>   2
Atom   2C    basis set group =>   2
Atom   3H    basis set group =>   1
Atom   4H    basis set group =>   1
Atom   5O    basis set group =>   3
Atom   6H    basis set group =>   1
Atom   7O    basis set group =>   3
Atom   8C    basis set group =>   2
Atom   9H    basis set group =>   1
Atom  10H    basis set group =>   1


           ************************************************************
           *        Program running with 6 parallel MPI-processes     *
           *              working on a common directory               *
           ************************************************************
------------------------------------------------------------------------------
                             ORCA STARTUP CALCULATIONS
                           -- RI-GTO INTEGRALS CHOSEN --
------------------------------------------------------------------------------
------------------------------------------------------------------------------
                   ___                                                        
                  /   \      - P O W E R E D   B Y -                         
                 /     \                                                     
                 |  |  |   _    _      __       _____    __    __             
                 |  |  |  | |  | |    /  \     |  _  \  |  |  /  |          
                  \  \/   | |  | |   /    \    | | | |  |  | /  /          
                 / \  \   | |__| |  /  /\  \   | |_| |  |  |/  /          
                |  |  |   |  __  | /  /__\  \  |    /   |      \           
                |  |  |   | |  | | |   __   |  |    \   |  |\   \          
                \     /   | |  | | |  |  |  |  | |\  \  |  | \   \       
                 \___/    |_|  |_| |__|  |__|  |_| \__\ |__|  \__/        
                                                                              
                      - O R C A' S   B I G   F R I E N D -                    
                                      &                                       
                       - I N T E G R A L  F E E D E R -                       
                                                                              
 v1 FN, 2020, v2 2021, v3 2022-2024                                           
------------------------------------------------------------------------------


----------------------
SHARK INTEGRAL PACKAGE
----------------------

Number of atoms                             ...     11
Number of basis functions                   ...    100
Number of shells                            ...     48
Maximum angular momentum                    ...      2
Integral batch strategy                     ... SHARK/LIBINT Hybrid
RI-J (if used) integral strategy            ... SPLIT-RIJ (Revised 2003 algorithm where possible)
Printlevel                                  ...      1
Contraction scheme used                     ... SEGMENTED contraction
Prescreening option                         ... SCHWARTZ
   Thresh                                   ... 2.500e-11
   Tcut                                     ... 2.500e-12
   Tpresel                                  ... 2.500e-12 
Coulomb Range Separation                    ... NOT USED
Exchange Range Separation                   ... NOT USED
Multipole approximations                    ... NOT USED
Finite Nucleus Model                        ... NOT USED
CABS basis                                  ... NOT available
Auxiliary Coulomb fitting basis             ... AVAILABLE
   # of basis functions in Aux-J            ...    311
   # of shells in Aux-J                     ...    105
   Maximum angular momentum in Aux-J        ...      4
Auxiliary J/K fitting basis                 ... NOT available
Auxiliary Correlation fitting basis         ... NOT available
Auxiliary 'external' fitting basis          ... NOT available

Checking pre-screening integrals            ... done (  0.0 sec) Dimension = 48
   => SHARK Basis and OBASIS are compatible. Storing Pre-screening
Shell pair information
Shell pair cut-off parameter TPreSel        ...   2.5e-12
Total number of shell pairs                 ...      1176
Shell pairs after pre-screening             ...      1158
Total number of primitive shell pairs       ...      4178
Primitive shell pairs kept                  ...      3317
          la=0 lb=0:    370 shell pairs
          la=1 lb=0:    426 shell pairs
          la=1 lb=1:    135 shell pairs
          la=2 lb=0:    133 shell pairs
          la=2 lb=1:     79 shell pairs
          la=2 lb=2:     15 shell pairs

Checking whether 4 symmetric matrices of dimension 100 fit in memory
:Max Core in MB      =   4096.00
 MB in use           =      4.78
 MB left             =   4091.22
 MB needed           =      0.15
 Data fit in memory  = YES
Calculating RI/J V-Matrix + Cholesky decomp.... done (  0.0 sec)
Calculating Nuclear repulsion               ... done (  0.0 sec) ENN=    180.506557331907 Eh

Diagonalization of the overlap matrix:
Smallest eigenvalue                        ... 1.975e-03
Time for diagonalization                   ...    0.002 sec
Threshold for overlap eigenvalues          ... 1.000e-07
Number of eigenvalues below threshold      ... 0
Time for construction of square roots      ...    0.001 sec
Total time needed                          ...    0.003 sec

-------------------
DFT GRID GENERATION
-------------------

General Integration Accuracy     IntAcc      ... 4.388
Radial Grid Type                 RadialGrid  ... OptM3 with GC (2021)
Angular Grid (max. ang.)         AngularGrid ... 4 (Lebedev-302)
Angular grid pruning method      GridPruning ... 4 (adaptive)
Weight generation scheme         WeightScheme... mBecke (2022)
Basis function cutoff            BFCut       ... 1.0000e-11
Integration weight cutoff        WCut        ... 1.0000e-14
Partially contracted basis set               ... off
Rotationally invariant grid construction     ... off
Angular grids for H and He will be reduced by one unit

Total number of grid points                  ...    49774
Total number of batches                      ...      782
Average number of points per batch           ...       63
Average number of grid points per atom       ...     4525

--------------------
COSX GRID GENERATION
--------------------

GRIDX 1
-------
General Integration Accuracy     IntAcc      ... 3.816
Radial Grid Type                 RadialGrid  ... OptM3 with GC (2021)
Angular Grid (max. ang.)         AngularGrid ... 1 (Lebedev-50)
Angular grid pruning method      GridPruning ... 4 (adaptive)
Weight generation scheme         WeightScheme... mBecke (2022)
Basis function cutoff            BFCut       ... 1.0000e-11
Integration weight cutoff        WCut        ... 1.0000e-14
Partially contracted basis set               ... on
Rotationally invariant grid construction     ... off
Angular grids for H and He will be reduced by one unit

Total number of grid points                  ...     6385
Total number of batches                      ...       58
Average number of points per batch           ...      110
Average number of grid points per atom       ...      580
UseSFitting                                  ... on

GRIDX 2
-------
General Integration Accuracy     IntAcc      ... 4.020
Radial Grid Type                 RadialGrid  ... OptM3 with GC (2021)
Angular Grid (max. ang.)         AngularGrid ... 2 (Lebedev-110)
Angular grid pruning method      GridPruning ... 4 (adaptive)
Weight generation scheme         WeightScheme... mBecke (2022)
Basis function cutoff            BFCut       ... 1.0000e-11
Integration weight cutoff        WCut        ... 1.0000e-14
Partially contracted basis set               ... on
Rotationally invariant grid construction     ... off
Angular grids for H and He will be reduced by one unit

Total number of grid points                  ...    13808
Total number of batches                      ...      115
Average number of points per batch           ...      120
Average number of grid points per atom       ...     1255
UseSFitting                                  ... on

GRIDX 3
-------
General Integration Accuracy     IntAcc      ... 4.338
Radial Grid Type                 RadialGrid  ... OptM3 with GC (2021)
Angular Grid (max. ang.)         AngularGrid ... 3 (Lebedev-194)
Angular grid pruning method      GridPruning ... 4 (adaptive)
Weight generation scheme         WeightScheme... mBecke (2022)
Basis function cutoff            BFCut       ... 1.0000e-11
Integration weight cutoff        WCut        ... 1.0000e-14
Partially contracted basis set               ... on
Rotationally invariant grid construction     ... off
Angular grids for H and He will be reduced by one unit

Total number of grid points                  ...    30372
Total number of batches                      ...      244
Average number of points per batch           ...      124
Average number of grid points per atom       ...     2761
UseSFitting                                  ... on
Grids setup in   0.7 sec
Initializing property integral containers    ... done (  0.0 sec)

SHARK setup successfully completed in   0.8 seconds

Maximum memory used throughout the entire STARTUP-calculation: 14.3 MB


           ************************************************************
           *        Program running with 6 parallel MPI-processes     *
           *              working on a common directory               *
           ************************************************************
-------------------------------------------------------------------------------
                                 ORCA GUESS
                   Start orbitals & Density for SCF / CASSCF
-------------------------------------------------------------------------------

------------
SCF SETTINGS
------------
Hamiltonian:
 Density Functional     Method          .... DFT(GTOs)
 Exchange Functional    Exchange        .... B88
   X-Alpha parameter    XAlpha          ....  0.666667
   Becke's b parameter  XBeta           ....  0.004200
 Correlation Functional Correlation     .... LYP
 LDA part of GGA corr.  LDAOpt          .... VWN-5
 Gradients option       PostSCFGGA      .... off
 Hybrid DFT is turned on
   Fraction HF Exchange ScalHFX         ....  0.200000
   Scaling of DF-GGA-X  ScalDFX         ....  0.720000
   Scaling of DF-GGA-C  ScalDFC         ....  0.810000
   Scaling of DF-LDA-C  ScalLDAC        ....  1.000000
   Perturbative correction              ....  0.000000
   NL short-range parameter             ....  4.800000
 RI-approximation to the Coulomb term is turned on
   Number of AuxJ basis functions       .... 311
   RIJ-COSX (HFX calculated with COS-X)).... on


General Settings:
 Integral files         IntName         .... orca
 Hartree-Fock type      HFTyp           .... RHF
 Total Charge           Charge          ....    0
 Multiplicity           Mult            ....    1
 Number of Electrons    NEL             ....   40
 Basis Dimension        Dim             ....  100
 Nuclear Repulsion      ENuc            ....    180.5065573319 Eh

Convergence Acceleration:
 AO-DIIS                CNVDIIS         .... on
   Start iteration      DIISMaxIt       ....    12
   Startup error        DIISStart       ....  0.200000
   # of expansion vecs  DIISMaxEq       ....     5
   Bias factor          DIISBfac        ....   1.050
   Max. coefficient     DIISMaxC        ....  10.000
 MO-DIIS                CNVKDIIS        .... off
 Trust-Rad. Augm. Hess. CNVTRAH         .... auto
   Auto Start mean grad. ratio tolernc. ....  1.125000
   Auto Start start iteration           ....    50
   Auto Start num. interpolation iter.  ....    10
   Max. Number of Micro iterations      ....    24
   Max. Number of Macro iterations      .... Maxiter - #DIIS iter
   Number of Davidson start vectors     ....     2
   Converg. threshold    (grad. norm)   ....   1.000e-05
   Grad. Scal. Fac. for Micro threshold ....   0.100
   Minimum threshold for Micro iter.    ....   1.000e-02
   NR start threshold (gradient norm)   ....   1.000e-04
   Initial trust radius                 ....   0.400
   Minimum AH scaling param. (alpha)    ....   1.000
   Maximum AH scaling param. (alpha)    .... 1000.000
   Quad. conv. algorithm                .... NR
   White noise on init. David. guess    .... on
   Maximum white noise                  ....   0.010
   Pseudo random numbers                .... off
   Inactive MOs                         .... canonical
   Orbital update algorithm             .... Taylor
   Preconditioner                       .... Diag
   Full preconditioner red. dimension   ....   250
 SOSCF                 CNVSOSCF           .... on
   Start iteration     SOSCFMaxIt         ....   150
   Startup grad/error  SOSCFStart         ....  0.003300
   Hessian update      SOSCFHessUp        .... L-BFGS
   Autom. constraints  SOSCFAutoConstrain .... off
 Level Shifting         CNVShift        .... on
   Level shift para.    LevelShift      ....    0.2500
   Turn off err/grad.   ShiftErr        ....    0.0010
 Zerner damping         CNVZerner       .... off
 Static damping         CNVDamp         .... on
   Fraction old density DampFac         ....    0.7000
   Max. Damping (<1)    DampMax         ....    0.9800
   Min. Damping (>=0)   DampMin         ....    0.0000
   Turn off err/grad.   DampErr         ....    0.1000

SCF Procedure:
 Maximum # iterations   MaxIter         ....   125
 SCF integral mode      SCFMode         .... Direct
   Integral package                     .... SHARK and LIBINT hybrid scheme
 Reset frequency        DirectResetFreq ....    20
 Integral Threshold     Thresh          ....  2.500e-11 Eh
 Primitive CutOff       TCut            ....  2.500e-12 Eh

Convergence Tolerance:
 Convergence Check Mode ConvCheckMode   .... Total+1el-Energy
 Convergence forced     ConvForced      .... 0
 Energy Change          TolE            ....  1.000e-08 Eh
 1-El. energy change                    ....  1.000e-05 Eh
 Orbital Gradient       TolG            ....  1.000e-05
 Orbital Rotation angle TolX            ....  1.000e-05
 DIIS Error             TolErr          ....  5.000e-07

------------------------------
INITIAL GUESS: MODEL POTENTIAL
------------------------------
Loading Hartree-Fock densities                     ... done
Calculating cut-offs                               ... done
Initializing the effective Hamiltonian             ... done
Setting up the integral package (SHARK)            ... done
Starting the Coulomb interaction                   ... done (   0.0 sec)
Making the grid                                    ... done (   0.1 sec)
Mapping shells                                     ... done
Starting the XC term evaluation                    ... done (   0.0 sec)
  promolecular density results
     # of electrons  =     39.999240757
     EX              =    -33.533896220
     EC              =     -1.352670722
     EX+EC           =    -34.886566942
Transforming the Hamiltonian                       ... done (   0.0 sec)
Diagonalizing the Hamiltonian                      ... done (   0.0 sec)
Back transforming the eigenvectors                 ... done (   0.0 sec)
Now organizing SCF variables                       ... done
                      ------------------
                      INITIAL GUESS DONE (   0.1 sec)
                      ------------------
             **** ENERGY FILE WAS UPDATED (orca.en.tmp) ****
Finished Guess after   0.3 sec
Maximum memory used throughout the entire GUESS-calculation: 7.2 MB


           ************************************************************
           *        Program running with 6 parallel MPI-processes     *
           *              working on a common directory               *
           ************************************************************

-------------------------------------------------------------------------------------------
                                      ORCA LEAN-SCF
                              memory conserving SCF solver
-------------------------------------------------------------------------------------------

----------------------------------------D-I-I-S--------------------------------------------
Iteration    Energy (Eh)           Delta-E    RMSDP     MaxDP     DIISErr   Damp  Time(sec)
-------------------------------------------------------------------------------------------
               ***  Starting incremental Fock matrix formation  ***
    1    -267.5660690727316364     0.00e+00  3.39e-02  2.54e-01  3.64e-01  0.700   0.4
Warning: op=0 Small HOMO/LUMO gap (  -0.170) - skipping pre-diagonalization
         LevelShift set to 0.270 Eh
         Will do a full diagonalization
    2    -267.6622960618609568    -9.62e-02  9.91e-03  5.83e-02  9.84e-02  0.700   0.3
                               ***Turning on AO-DIIS***
    3    -267.7093600145528853    -4.71e-02  5.85e-03  2.89e-02  3.62e-02  0.700   0.3
    4    -267.7433222333884828    -3.40e-02  1.49e-02  9.16e-02  3.28e-02  0.000   0.3
    5    -267.8016482374287079    -5.83e-02  3.85e-03  2.11e-02  6.96e-02  0.000   0.3
    6    -267.8029518261822659    -1.30e-03  3.27e-03  2.10e-02  6.95e-02  0.000   0.3
    7    -267.8076234308895209    -4.67e-03  3.92e-03  2.21e-02  3.99e-02  0.000   0.3
    8    -267.8129226487638448    -5.30e-03  3.63e-03  1.85e-02  3.26e-02  0.000   0.3
    9    -267.8166237008776989    -3.70e-03  3.29e-03  1.90e-02  1.15e-02  0.000   0.3
   10    -267.8180483488372374    -1.42e-03  1.31e-03  7.07e-03  4.01e-03  0.000   0.3
   11    -267.8182970903776550    -2.49e-04  9.05e-04  5.08e-03  3.77e-03  0.000   0.3
                              *** Initializing SOSCF ***
---------------------------------------S-O-S-C-F--------------------------------------
Iteration    Energy (Eh)           Delta-E    RMSDP     MaxDP     MaxGrad    Time(sec)
--------------------------------------------------------------------------------------
   12    -267.8184327548534611    -1.36e-04  7.79e-04  4.24e-03  2.62e-03     0.3
               *** Restarting incremental Fock matrix formation ***
   13    -267.8184928864449148    -6.01e-05  1.71e-03  9.13e-03  1.62e-03     0.4
   14    -267.8186560588395650    -1.63e-04  5.84e-03  3.51e-02  1.83e-03     0.4
   15    -267.8183276633272385     3.28e-04  3.33e-03  2.06e-02  7.50e-03     0.4
   16    -267.8187915112392261    -4.64e-04  5.36e-04  3.20e-03  7.44e-04     0.4
   17    -267.8187941791574644    -2.67e-06  5.12e-04  3.11e-03  7.03e-04     0.4
   18    -267.8188101226158437    -1.59e-05  1.31e-04  7.95e-04  1.88e-04     0.4
   19    -267.8188102958955596    -1.73e-07  7.81e-05  4.18e-04  2.26e-04     0.4
   20    -267.8188113825746086    -1.09e-06  3.86e-05  2.00e-04  1.89e-05     0.4
   21    -267.8188114325209312    -4.99e-08  1.87e-05  9.80e-05  1.01e-05     0.4
   22    -267.8188114413665062    -8.85e-09  2.52e-06  1.67e-05  3.61e-06     0.4
                 **** Energy Check signals convergence ****

               *****************************************************
               *                     SUCCESS                       *
               *           SCF CONVERGED AFTER  22 CYCLES          *
               *****************************************************

Recomputing exchange energy using gridx3       ... done (    0.616 sec)
Old exchange energy                            :     -6.784064774 Eh
New exchange energy                            :     -6.784057236 Eh
Exchange energy change after final integration :      0.000007538 Eh
Total energy after final integration           :   -267.818803904 Eh
             **** ENERGY FILE WAS UPDATED (orca.en.tmp) ****

----------------
TOTAL SCF ENERGY
----------------

Total Energy       :       -267.81880390434065 Eh           -7287.72015 eV

Components:
Nuclear Repulsion  :        180.50655733190683 Eh            4911.83314 eV
Electronic Energy  :       -448.32536877398138 Eh          -12199.55350 eV
One Electron Energy:       -722.43415576596976 Eh          -19658.43279 eV
Two Electron Energy:        274.10878699198838 Eh            7458.87930 eV

Virial components:
Potential Energy   :       -533.50646725364959 Eh          -14517.44903 eV
Kinetic Energy     :        265.68766334930893 Eh            7229.72887 eV
Virial Ratio       :          2.00802122510382

DFT components:
N(Alpha)           :       19.999995060042 electrons
N(Beta)            :       19.999995060042 electrons
N(Total)           :       39.999990120083 electrons
E(X)               :      -27.035540622349 Eh       
E(C)               :       -1.598449541638 Eh       
E(XC)              :      -28.633990163987 Eh       

---------------
SCF CONVERGENCE
---------------

  Last Energy change         ...    8.8456e-09  Tolerance :   1.0000e-08
  Last MAX-Density change    ...    1.6697e-05  Tolerance :   1.0000e-07
  Last RMS-Density change    ...    2.5187e-06  Tolerance :   5.0000e-09
  Last DIIS Error            ...    2.6159e-03  Tolerance :   5.0000e-07
  Last Orbital Gradient      ...    3.6127e-06  Tolerance :   1.0000e-05
  Last Orbital Rotation      ...    1.3566e-05  Tolerance :   1.0000e-05


----------------
ORBITAL ENERGIES
----------------

  NO   OCC          E(Eh)            E(eV) 
   0   2.0000     -19.245858      -523.7064 
   1   2.0000     -18.999387      -516.9996 
   2   2.0000     -10.300576      -280.2929 
   3   2.0000     -10.269970      -279.4601 
   4   2.0000     -10.198373      -277.5118 
   5   2.0000      -1.103198       -30.0195 
   6   2.0000      -0.892044       -24.2738 
   7   2.0000      -0.799498       -21.7554 
   8   2.0000      -0.663601       -18.0575 
   9   2.0000      -0.594790       -16.1851 
  10   2.0000      -0.581671       -15.8281 
  11   2.0000      -0.484829       -13.1929 
  12   2.0000      -0.473458       -12.8835 
  13   2.0000      -0.437944       -11.9171 
  14   2.0000      -0.421540       -11.4707 
  15   2.0000      -0.367849       -10.0097 
  16   2.0000      -0.367041        -9.9877 
  17   2.0000      -0.314947        -8.5701 
  18   2.0000      -0.167066        -4.5461 
  19   2.0000      -0.156819        -4.2672 
  20   0.0000      -0.093793        -2.5522 
  21   0.0000       0.005675         0.1544 
  22   0.0000       0.047166         1.2835 
  23   0.0000       0.064432         1.7533 
  24   0.0000       0.086727         2.3600 
  25   0.0000       0.110883         3.0173 
  26   0.0000       0.128728         3.5029 
  27   0.0000       0.165987         4.5167 
  28   0.0000       0.230225         6.2647 
  29   0.0000       0.255528         6.9533 
  30   0.0000       0.291409         7.9296 
*Only the first 10 virtual orbitals were printed.

                    ********************************
                    * MULLIKEN POPULATION ANALYSIS *
                    ********************************

-----------------------
MULLIKEN ATOMIC CHARGES
-----------------------
   0 H :    0.084234
   1 C :    0.131434
   2 C :   -0.065792
   3 H :    0.079068
   4 H :    0.045854
   5 O :   -0.182477
   6 H :    0.203198
   7 O :   -0.510679
   8 C :    0.385678
   9 H :   -0.065394
  10 H :   -0.105124
Sum of atomic charges:    0.0000000

--------------------------------
MULLIKEN REDUCED ORBITAL CHARGES
--------------------------------
  0 H s       :     0.893066  s :     0.893066
      pz      :     0.013159  p :     0.022700
      px      :     0.003293
      py      :     0.006248

  1 C s       :     3.176352  s :     3.176352
      pz      :     1.044262  p :     2.657392
      px      :     0.652942
      py      :     0.960187
      dz2     :     0.011290  d :     0.034821
      dxz     :     0.003811
      dyz     :     0.007891
      dx2y2   :     0.007116
      dxy     :     0.004713

  2 C s       :     3.213447  s :     3.213447
      pz      :     0.916053  p :     2.790083
      px      :     0.727195
      py      :     1.146836
      dz2     :     0.008816  d :     0.062262
      dxz     :     0.014925
      dyz     :     0.015767
      dx2y2   :     0.014317
      dxy     :     0.008437

  3 H s       :     0.898057  s :     0.898057
      pz      :     0.004054  p :     0.022875
      px      :     0.003302
      py      :     0.015519

  4 H s       :     0.933053  s :     0.933053
      pz      :     0.013219  p :     0.021093
      px      :     0.002537
      py      :     0.005337

  5 O s       :     3.793139  s :     3.793139
      pz      :     1.574295  p :     4.375140
      px      :     1.241024
      py      :     1.559821
      dz2     :     0.002024  d :     0.014199
      dxz     :     0.003406
      dyz     :     0.002661
      dx2y2   :     0.002371
      dxy     :     0.003738

  6 H s       :     0.731283  s :     0.731283
      pz      :     0.020206  p :     0.065519
      px      :     0.021977
      py      :     0.023335

  7 O s       :     3.843032  s :     3.843032
      pz      :     1.701089  p :     4.654416
      px      :     1.366883
      py      :     1.586444
      dz2     :     0.001759  d :     0.013231
      dxz     :     0.003670
      dyz     :     0.001054
      dx2y2   :     0.003497
      dxy     :     0.003251

  8 C s       :     2.927462  s :     2.927462
      pz      :     0.909725  p :     2.602907
      px      :     0.884695
      py      :     0.808486
      dz2     :     0.016875  d :     0.083953
      dxz     :     0.021484
      dyz     :     0.006552
      dx2y2   :     0.024993
      dxy     :     0.014049

  9 H s       :     1.045132  s :     1.045132
      pz      :     0.006934  p :     0.020262
      px      :     0.009470
      py      :     0.003858

 10 H s       :     1.085300  s :     1.085300
      pz      :     0.011412  p :     0.019824
      px      :     0.003578
      py      :     0.004834



                     *******************************
                     * LOEWDIN POPULATION ANALYSIS *
                     *******************************

----------------------
LOEWDIN ATOMIC CHARGES
----------------------
   0 H :    0.047474
   1 C :    0.159403
   2 C :    0.053428
   3 H :    0.038019
   4 H :    0.028843
   5 O :    0.043559
   6 H :    0.105826
   7 O :   -0.429001
   8 C :    0.024054
   9 H :   -0.029653
  10 H :   -0.041953

-------------------------------
LOEWDIN REDUCED ORBITAL CHARGES
-------------------------------
  0 H s       :     0.881054  s :     0.881054
      pz      :     0.040636  p :     0.071472
      px      :     0.011134
      py      :     0.019702

  1 C s       :     2.933037  s :     2.933037
      pz      :     1.096681  p :     2.825998
      px      :     0.657201
      py      :     1.072117
      dz2     :     0.027355  d :     0.081561
      dxz     :     0.008274
      dyz     :     0.020907
      dx2y2   :     0.015478
      dxy     :     0.009548

  2 C s       :     2.910335  s :     2.910335
      pz      :     1.006550  p :     2.895428
      px      :     0.762066
      py      :     1.126811
      dz2     :     0.021690  d :     0.140809
      dxz     :     0.032332
      dyz     :     0.037367
      dx2y2   :     0.034081
      dxy     :     0.015340

  3 H s       :     0.889522  s :     0.889522
      pz      :     0.013216  p :     0.072459
      px      :     0.010830
      py      :     0.048413

  4 H s       :     0.900106  s :     0.900106
      pz      :     0.039560  p :     0.071051
      px      :     0.011210
      py      :     0.020281

  5 O s       :     3.505211  s :     3.505211
      pz      :     1.600771  p :     4.427225
      px      :     1.258155
      py      :     1.568299
      dz2     :     0.002431  d :     0.024005
      dxz     :     0.006375
      dyz     :     0.004140
      dx2y2   :     0.003895
      dxy     :     0.007164

  6 H s       :     0.719844  s :     0.719844
      pz      :     0.055818  p :     0.174329
      px      :     0.054970
      py      :     0.063541

  7 O s       :     3.615009  s :     3.615009
      pz      :     1.735102  p :     4.790827
      px      :     1.469620
      py      :     1.586104
      dz2     :     0.002747  d :     0.023165
      dxz     :     0.006808
      dyz     :     0.001648
      dx2y2   :     0.006208
      dxy     :     0.005753

  8 C s       :     2.849801  s :     2.849801
      pz      :     1.020021  p :     2.923770
      px      :     0.983355
      py      :     0.920393
      dz2     :     0.040993  d :     0.202375
      dxz     :     0.052140
      dyz     :     0.014882
      dx2y2   :     0.065910
      dxy     :     0.028450

  9 H s       :     0.969273  s :     0.969273
      pz      :     0.018446  p :     0.060380
      px      :     0.031965
      py      :     0.009969

 10 H s       :     0.981802  s :     0.981802
      pz      :     0.036095  p :     0.060151
      px      :     0.011315
      py      :     0.012740



                      *****************************
                      * MAYER POPULATION ANALYSIS *
                      *****************************

  NA   - Mulliken gross atomic population
  ZA   - Total nuclear charge
  QA   - Mulliken gross atomic charge
  VA   - Mayer's total valence
  BVA  - Mayer's bonded valence
  FA   - Mayer's free valence

  ATOM       NA         ZA         QA         VA         BVA        FA
  0 H      0.9158     1.0000     0.0842     0.9926     0.9926    -0.0000
  1 C      5.8686     6.0000     0.1314     3.7370     3.7370    -0.0000
  2 C      6.0658     6.0000    -0.0658     3.8230     3.8230    -0.0000
  3 H      0.9209     1.0000     0.0791     0.9710     0.9710    -0.0000
  4 H      0.9541     1.0000     0.0459     0.9963     0.9963    -0.0000
  5 O      8.1825     8.0000    -0.1825     2.3336     2.3336     0.0000
  6 H      0.7968     1.0000     0.2032     1.0224     1.0224     0.0000
  7 O      8.5107     8.0000    -0.5107     1.9781     1.9781     0.0000
  8 C      5.6143     6.0000     0.3857     4.0403     4.0403    -0.0000
  9 H      1.0654     1.0000    -0.0654     0.9428     0.9428     0.0000
 10 H      1.1051     1.0000    -0.1051     0.9485     0.9485    -0.0000

  Mayer bond orders larger than 0.100000
B(  0-H ,  1-C ) :   0.9355 B(  1-C ,  2-C ) :   1.0555 B(  1-C ,  3-H ) :   0.9443 
B(  1-C ,  5-O ) :   0.6082 B(  1-C ,  7-O ) :   0.1904 B(  2-C ,  4-H ) :   0.9501 
B(  2-C ,  5-O ) :   0.6926 B(  2-C ,  8-C ) :   0.8953 B(  5-O ,  6-H ) :   0.9410 
B(  7-O ,  8-C ) :   1.4386 B(  8-C ,  9-H ) :   0.8739 B(  8-C , 10-H ) :   0.8305 


-------
TIMINGS
-------

Total SCF time: 0 days 0 hours 0 min 8 sec 

Total time                  ....       8.540 sec
Sum of individual times     ....       8.141 sec  ( 95.3%)

SCF preparation             ....       0.160 sec  (  1.9%)
Fock matrix formation       ....       7.674 sec  ( 89.9%)
  Startup                   ....       0.005 sec  (  0.1% of F)
  Split-RI-J                ....       0.630 sec  (  8.2% of F)
  Chain of spheres X        ....       5.398 sec  ( 70.3% of F)
  XC integration            ....       1.795 sec  ( 23.4% of F)
    XC Preparation          ....       0.000 sec  (  0.0% of XC)
    Basis function eval.    ....       0.548 sec  ( 30.5% of XC)
    Density eval.           ....       0.290 sec  ( 16.1% of XC)
    XC-Functional eval.     ....       0.125 sec  (  6.9% of XC)
    XC-Potential eval.      ....       0.335 sec  ( 18.7% of XC)
Diagonalization             ....       0.000 sec  (  0.0%)
Density matrix formation    ....       0.045 sec  (  0.5%)
Total Energy calculation    ....       0.025 sec  (  0.3%)
Population analysis         ....       0.009 sec  (  0.1%)
Orbital Transformation      ....       0.014 sec  (  0.2%)
Orbital Orthonormalization  ....       0.000 sec  (  0.0%)
DIIS solution               ....       0.129 sec  (  1.5%)
SOSCF solution              ....       0.085 sec  (  1.0%)
Finished LeanSCF after   8.5 sec

Maximum memory used throughout the entire LEANSCF-calculation: 8.8 MB


-------------------------------------------------------------------------------
                          DFT DISPERSION CORRECTION                            
                                                                               
                              DFTD3 V3.1  Rev 1                                
                          USING Becke-Johnson damping                          
-------------------------------------------------------------------------------
The B3LYP functional is recognized
Active option DFTDOPT                   ...         4   

molecular C6(AA) [au] = 909.262296 


            DFT-D V3
 parameters
 s6 scaling factor         :     1.0000 
 a1 scaling factor         :     0.3981 
 s8 scaling factor         :     1.9889 
 a2 scaling factor         :     4.4211 
 ad hoc parameters k1-k3   :    16.0000     1.3333    -4.0000 

 Edisp/kcal,au: -7.321689041924  -0.011667852939 
 E6   /kcal   :  -3.594118694 
 E8   /kcal   :  -3.727570348 
 % E8         :  50.911344721 

-------------------------   ----------------
Dispersion correction           -0.011667853
-------------------------   ----------------


-------------------------   --------------------
FINAL SINGLE POINT ENERGY      -267.830471757279
-------------------------   --------------------



           ************************************************************
           *        Program running with 6 parallel MPI-processes     *
           *              working on a common directory               *
           ************************************************************
------------------------------------------------------------------------------
                         ORCA SCF GRADIENT CALCULATION
------------------------------------------------------------------------------

Nuc. rep. gradient        (SHARK) ... done (  0.0 sec)
HCore & Overlap gradient  (SHARK) ... done (  0.0 sec)
Split-RIJ-J gradient      (SHARK) ... done (  0.2 sec)
done (  2.7 sec)
XC gradient                       ... done (  0.5 sec)
Dispersion correction             ... done (  0.0 sec)

-------------------
DISPERSION GRADIENT
-------------------

   1   H   :   -0.000069319    0.000134852   -0.000181552
   2   C   :    0.000516401    0.000046672   -0.000096258
   3   C   :    0.000017126    0.000027424    0.000032329
   4   H   :   -0.000066047    0.000138149   -0.000084245
   5   H   :   -0.000000449    0.000107805    0.000139914
   6   O   :   -0.000405805    0.000411584   -0.000197819
   7   H   :    0.000220642    0.000135914   -0.000010012
   8   O   :    0.000084144   -0.000334838    0.000180569
   9   C   :   -0.000107309   -0.000287678    0.000122346
  10   H   :   -0.000111369   -0.000160124    0.000102735
  11   H   :   -0.000078015   -0.000219760   -0.000008005

Difference to translation invariance:
           :    0.0000000000   -0.0000000000   -0.0000000000

Difference to rotation invariance:
           :   -0.0000000000   -0.0000000000   -0.0000000000

Norm of the Dispersion gradient    ...    0.0010965640
RMS gradient                       ...    0.0001908873
MAX gradient                       ...    0.0005164012

------------------
CARTESIAN GRADIENT
------------------

   1   H   :    0.000010604    0.000078738    0.000017922
   2   C   :   -0.000072093    0.000055752   -0.000005319
   3   C   :   -0.000120787   -0.000150788    0.000000809
   4   H   :   -0.000014065    0.000056577    0.000023378
   5   H   :   -0.000012279    0.000008826   -0.000051510
   6   O   :    0.000043596   -0.000180957    0.000004846
   7   H   :    0.000006744   -0.000035905   -0.000016087
   8   O   :    0.000107157    0.000027170    0.000132199
   9   C   :   -0.000015346    0.000169049   -0.000065863
  10   H   :    0.000040377   -0.000019112   -0.000001246
  11   H   :    0.000026092   -0.000009349   -0.000039130

Difference to translation invariance:
           :    0.0000000001   -0.0000000001   -0.0000000000

Difference to rotation invariance:
           :    0.0000207042   -0.0000062121    0.0000551438

Norm of the Cartesian gradient     ...    0.0004031496
RMS gradient                       ...    0.0000701793
MAX gradient                       ...    0.0001809569

-------
TIMINGS
-------

Total SCF gradient time     ....        3.347 sec

Densities                   ....       0.000 sec  (  0.0%)
One electron gradient       ....       0.027 sec  (  0.8%)
RI-J Coulomb gradient       ....       0.165 sec  (  4.9%)
COSX gradient               ....       2.659 sec  ( 79.5%)
XC gradient                 ....       0.453 sec  ( 13.5%)

Maximum memory used throughout the entire SCFGRAD-calculation: 27.1 MB


           ************************************************************
           *        Program running with 6 parallel MPI-processes     *
           *              working on a common directory               *
           ************************************************************

------------------------------------------------------------------------------
                              ORCA PROPERTY CALCULATIONS
------------------------------------------------------------------------------

GBWName                                 ... orca.gbw
Number of atoms                         ...     11
Number of basis functions               ...    100
Max core memory                         ...   4096 MB

Electric properties:
Dipole moment                           ... YES
Quadrupole moment                       ...  NO
Static polarizability (Dipole/Dipole)   ...  NO
Static polarizability (Dipole/Quad.)    ...  NO
Static polarizability (Quad./Quad.)     ...  NO
Static polarizability (Velocity)        ...  NO
Static hyperpolarizability              ...  NO

Atomic electric properties:
Dipole moment                           ...  NO
Quadrupole moment                       ...  NO
Static polarizability                   ...  NO

Choice of electric origin               ... Center of mass
Position of electric origin             ...     0.526660    -0.532588     0.223263

General magnetic properties:
Magnetizability                         ...  NO

EPR properties:
g-Tensor (aka g-matrix)                 ...  NO
Zero-Field splitting spin-orbit         ...  NO
Zero-field splitting spin-spin          ...  NO
Hyperfine couplings                     ...  NO (   0 nuclei)
Quadrupole couplings                    ...  NO (   0 nuclei)
Contact density                         ...  NO (   0 nuclei)

NMR properties:
Chemical shifts                         ...  NO (   0 nuclei)
Spin-rotation constants                 ...  NO (   0 nuclei)
Spin-spin couplings                     ...  NO (   0 nuclei,    0 pairs)

Choice of magnetic origin               ... GIAO
Position of magnetic origin             ...     0.000000     0.000000     0.000000

Properties with geometric perturbations:
SCF Hessian                             ...  NO
IR spectrum                             ...  NO
VCD spectrum                            ...  NO
X-ray spectroscopy properties:
SCF XES/XAS/RIXS spectra                ...  NO

SCF SOC stabilization energy            ...  NO
Diagonal Born-Oppenheimer correction    ...  NO

-------------
DIPOLE MOMENT
-------------

Method             : SCF
Type of density    : Electron Density
Multiplicity       :   1
Irrep              :   0
Energy             :  -267.8188039043406548 Eh
Basis              : AO
                                X                 Y                 Z
Electronic contribution:      2.123848501      -0.019380349       0.215807516
Nuclear contribution   :     -2.638024656       2.875500206      -1.217950657
                        -----------------------------------------
Total Dipole Moment    :     -0.514176156       2.856119857      -1.002143141
                        -----------------------------------------
Magnitude (a.u.)       :      3.070193582
Magnitude (Debye)      :      7.803811906



--------------------
Rotational spectrum 
--------------------
 
Rotational constants in cm-1:             0.380460             0.130056             0.108893 
Rotational constants in MHz :         11405.892922          3898.968960          3264.515330 

Dipole components along the rotational axes: 
x,y,z [a.u.] :     2.999644     0.280637     0.591159 
x,y,z [Debye]:     7.624488     0.713322     1.502607 

 

Dipole moment calculation done in   0.0 sec 

Maximum memory used throughout the entire PROP-calculation: 5.2 MB

--------------------------------
SUGGESTED CITATIONS FOR THIS RUN
--------------------------------

Below you find a list of papers that are relevant to this ORCA run
We neither can nor want to force you to cite these papers, but we appreciate if you do
You receive ORCA, which is the product of decades of hard work by many enthusiastic individuals, for free
The only thing we kindly ask in return is that you cite our papers,
We deeply appreciate it, if you show your appreciation for ORCA by not just citing the generic ORCA reference.

Please note that relegating all ORCA citations to the supporting information does *not* help us.
SI sections are not indexed - citations you put there will not count into any citation statistics
But we need these citations in order to attract the funding resources that allow us to do what we are doing

Therefore, if you are a happy ORCA user, please consider citing a few of the papers listed below in the main body of your paper

In addition to the list printed below, the program has created the file orca.bibtex that contains the list in bibtex format
You can import this file easily into all common literature databanks and citation aid programs


List of essential papers. We consider these as the minimum necessary citations

  1. Neese, F.
     Software update: the ORCA program system, version 6.0
     WIRES Comput. Molec. Sci. 2025 15(1), e70019
     doi.org/10.1002/wcms.7019

List of papers to cite with high priority. The work reported in these papers was absolutely
necessary for this run to complete.
Our perspective: the developers of density functionals and basis sets usually get cited in chemistry papers
Good! But without the algorithms to do something with them, the functionals or basis sets would not do anything.
Hence, in our opinion, the algorithm design and method developments papers are equally worthy of getting cited

  1. Neese, F.
     An improvement of the resolution of the identity approximation for the formation of the Coulomb matrix
     J. Comp. Chem. 2003 24(14), 1740-1747
     doi.org/10.1002/jcc.10318
  2. Neese, F.; Wennmohs, F.; Hansen, A.; Becker, U.
     Efficient, approximate and parallel Hartree-Fock and hybrid DFT calculations. A 'chain-of-spheres' algorithm for the Hartree-Fock exchange
     Chem. Phys. 2009 356(1-3), 98-109
     doi.org/10.1016/j.chemphys.2008.10.036
  3. Grimme, S.; Antony, J.; Ehrlich, S.; Krieg, H.
     A consistent and accurate ab initio parametrization of density functional dispersion correction (DFT-D) for the 94 elements H-Pu
     J. Chem. Phys. 2010 132 , 154104
     doi.org/10.1063/1.3382344
  4. Grimme, S.; Ehrlich, S.; Goerigk, L.
     Effect of the damping function in dispersion corrected density functional theory
     J. Comput. Chem. 2011 32(7), 1456-1465
     doi.org/10.1002/jcc.21759
  5. Helmich-Paris, B.; de Souza, B.; Neese, F.; Izsák, R.
     An improved chain of spheres for exchange algorithm
     J. Chem. Phys. 2021 155(10), 104109
     doi.org/10.1063/5.0058766
  6. Neese, F.
     The SHARK Integral Generation and Digestion System
     J. Comp. Chem. 2022 44(3), 381
     doi.org/10.1002/jcc.26942

List of suggested additional citations. These are papers that are important in the 'surrounding' of 
of this run, or papers that preceded the highly important papers. If you like your results we are grateful for a citation.

  1. Izsak, R.; Neese, F.
     An overlap fitted chain of spheres exchange method
     J. Chem. Phys. 2011 135 , 144105
     doi.org/10.1063/1.3646921
  2. Izsak, R.; Hansen, A.; Neese, F.
     The resolution of identity and chain of spheres approximations for the LPNO-CCSD singles Fock term
     Molec. Phys. 2012 110 , 2413-2417
     doi.org/10.1080/00268976.2012.687466
  3. Neese, F.
     The ORCA program system
     WIRES Comput. Molec. Sci. 2012 2(1), 73-78
     doi.org/10.1002/wcms.81
  4. Izsak, R.; Neese, F.; Klopper, W.
     Robust fitting techniques in the chain of spheres approximation to the Fock exchange: The role of the complementary space
     J. Chem. Phys. 2013 139 , 
     doi.org/10.1063/1.4819264
  5. Neese, F.
     Software update: the ORCA program system, version 4.0
     WIRES Comput. Molec. Sci. 2018 8(1), 1-6
     doi.org/10.1002/wcms.1327
  6. Neese, F.; Wennmohs, F.; Becker, U.; Riplinger, C.
     The ORCA quantum chemistry program package
     J. Chem. Phys. 2020 152(22), 224108
     doi.org/10.1063/5.0004608
  7. Neese, F.
     Software update: The ORCA program system—Version 5.0
     WIRES Comput. Molec. Sci. 2022 12(1), e1606
     doi.org/10.1002/wcms.1606

List of optional additional citations

  1. Neese, F.
     Approximate second-order SCF convergence for spin unrestricted wavefunctions
     Chem. Phys. Lett. 2000 325(1-3), 93-98
     doi.org/10.1016/s0009-2614(00)00662-x

Timings for individual modules:

Sum of individual times          ...       14.940 sec (=   0.249 min)
Startup calculation              ...        1.195 sec (=   0.020 min)   8.0 %
SCF iterations                   ...        9.469 sec (=   0.158 min)  63.4 %
Property calculations            ...        0.458 sec (=   0.008 min)   3.1 %
SCF Gradient evaluation          ...        3.818 sec (=   0.064 min)  25.6 %
                             ****ORCA TERMINATED NORMALLY****
TOTAL RUN TIME: 0 days 0 hours 0 minutes 15 seconds 575 msec
