
                                 *****************
                                 * O   R   C   A *
                                 *****************

                                            #,                                       
                                            ###                                      
                                            ####                                     
                                            #####                                    
                                            ######                                   
                                           ########,                                 
                                     ,,################,,,,,                         
                               ,,#################################,,                 
                          ,,##########################################,,             
                       ,#########################################, ''#####,          
                    ,#############################################,,   '####,        
                  ,##################################################,,,,####,       
                ,###########''''           ''''###############################       
              ,#####''   ,,,,##########,,,,          '''####'''          '####       
            ,##' ,,,,###########################,,,                        '##       
           ' ,,###''''                  '''############,,,                           
         ,,##''                                '''############,,,,        ,,,,,,###''
      ,#''                                            '''#######################'''  
     '                                                          ''''####''''         
             ,#######,   #######,   ,#######,      ##                                
            ,#'     '#,  ##    ##  ,#'     '#,    #''#        ,####,    ,#,          
            ##       ##  ##   ,#'  ##            #'  '#       #'       ,# #          
            ##       ##  #######   ##           ,######,      #####,      #          
            '#,     ,#'  ##    ##  '#,     ,#' ,#      #,     #,   #      #          
             '#######'   ##     ##  '#######'  #'      '#     '####' #    #          



                #########################################################
                #                        -***-                          #
                #          Department of theory and spectroscopy        #
                #                                                       #
                #                      Frank Neese                      #
                #                                                       #
                #     Directorship, Architecture, Infrastructure        #
                #                    SHARK, DRIVERS                     #
                #        Core code/Algorithms in most modules           #
                #                                                       #
                #        Max Planck Institute fuer Kohlenforschung      #
                #                Kaiser Wilhelm Platz 1                 #
                #                 D-45470 Muelheim/Ruhr                 #
                #                      Germany                          #
                #                                                       #
                #                  All rights reserved                  #
                #                        -***-                          #
                #########################################################


                         Program Version 6.1.0  -  RELEASE   -
                                (GIT: $679e74b$)
                          ($2025-06-10 18:02:51 +0200$)


 With contributions from (in alphabetic order):
[Max-Planck-Institut fuer Kohlenforschung]                               
  Daniel Aravena         : Magnetic Suceptibility                        
  Michael Atanasov       : Ab Initio Ligand Field Theory (pilot matlab implementation)
  Alexander A. Auer      : GIAO ZORA, VPT2 properties, NMR spectrum      
  Ute Becker             : All parallelization in ORCA, NUMFREQ, NUMCALC 
  Giovanni Bistoni       : ED, misc. LED, open-shell LED, HFLD           
  Dmytro Bykov           : pre 5.0 version of the SCF Hessian            
  Marcos Casanova-Páez   : Triplet and SCS-CIS(D). UHF-(DLPNO)-IP/EA/STEOM-CCSD. UHF-CVS-IP/STEOM-CCSD   
  Vijay G. Chilkuri      : MRCI spin determinant printing, contributions to CSF-ICE 
  Pauline Colinet        : FMM embedding                                 
  Dipayan Datta          : RHF DLPNO-CCSD density                        
  Achintya Kumar Dutta   : EOM-CC, STEOM-CC                              
  Nicolas Foglia         : Exact transition moments, OPA infrastructure, MCD improvements    
  Dmitry Ganyushin       : Spin-Orbit,Spin-Spin,Magnetic field MRCI      
  Miquel Garcia-Rates    : C-PCM and meta-GGA Hessian, CCSD/C-PCM, Gaussian charge scheme 
  Tiago L. C. Gouveia    : GS-ROHF, GS-ROCIS                             
  Yang Guo               : DLPNO-NEVPT2, F12-NEVPT2, CIM, IAO-localization        
  Andreas Hansen         : Spin unrestricted coupled pair/coupled cluster methods 
  Ingolf Harden          : AUTO-CI MPn and infrastructure                
  Benjamin Helmich-Paris : MC-RPA, TRAH-(SCF,CASSCF), AVAS, COSX integrals, SCF dyn. polar., MC-PDFT, srDFT 
  Lee Huntington         : MR-EOM, pCC                                   
  Robert Izsak           : Overlap fitted RIJCOSX, COSX-SCS-MP3, EOM     
  Riya Kayal             : Wick's Theorem for AUTO-CI, AUTO-CI UHF-CCSDT 
  Emily Kempfer          : AUTO-CI RHF CISDT and CCSDT, approximate NEVPT4
  Christian Kollmar      : KDIIS, OOCD, Brueckner-CCSD(T), CCSD density, CASPT2, CASPT2-K, improved NEVPT2 
  Axel Koslowski         : Symmetry handling                             
  Simone Kossmann        : meta-GGA functionals, TD-DFT gradient, OOMP2, (MP2 Hessian; deprecated post 5.0) 
  Lucas Lang             : DCDCAS, Hyperfine gauge corrections, ICE-SOC+SSC
  Marvin Lechner         : AUTO-CI (C++ implementation), FIC-MRCC        
  Spencer Leger          : CASSCF response                               
  Dagmar Lenk            : GEPOL surface, SMD, ORCA-2-JSON               
  Dimitrios Liakos       : Extrapolation schemes; Compound Job, Property file
  Dimitrios Manganas     : Further ROCIS development; embedding schemes. LFT, Crystal Embedding 
  Dimitrios Pantazis     : SARC Basis sets                               
  Anastasios Papadopoulos: AUTO-CI, single reference methods and gradients 
  Taras Petrenko         : pre 6.0 DFT Hessian and TD-DFT gradient,  ECA, NRVS 
  Petra Pikulova         : Analytic Raman intensities                    
  Peter Pinski           : DLPNO-MP2, DLPNO-MP2 Gradient                 
  Shashank Vittal Rao    : ES-AILFT, MagRelax                            
  Christoph Reimann      : Effective Core Potentials                     
  Marius Retegan         : Local ZFS, SOC                                
  Christoph Riplinger    : Optimizer, TS searches, QM/MM, DLPNO-CCSD(T), (RO)-DLPNO pert. Triples 
  Michael Roemelt        : Original ROCIS implementation, recursive CI coupling coefficients
  Masaaki Saitow         : Open-shell DLPNO-CCSD energy and density      
  Barbara Sandhoefer     : DKH picture change effects                    
  Yorick L. A. Schmerwitz: GMF and freeze-and-release deltaSCF, NEB S-IDPP initial path                    
  Kantharuban Sivalingam : CASSCF convergence/infrastructure, NEVPT2, NEVPT3, NEVPT4(SD), FIC-MRCI and CEPA variants
  Bernardo de Souza      : ESD, SOC TD-DFT                               
  Georgi L. Stoychev     : AutoAux, RI-MP2 NMR, DLPNO-MP2 response, X2C  
  Van Anh Tran           : RI-MP2 g-tensors                              
  Willem Van den Heuvel  : Paramagnetic NMR                              
  Zikuan Wang            : NOTCH, Electric field optimization            
  Frank Wennmohs         : Technical directorship and infrastructure     
  Hang Xu                : AUTO-CI-Response properties                   
                                                                         
[FACCTs GmbH]                                                            
  Markus Bursch, Nicolas Foglia, Miquel Garcia-Rates, Ingolf Harden, Hagen Neugebauer, Anastasios Papadopoulos, 
  Christoph Riplinger, Bernardo de Souza, Georgi L. Stoychev                                                    
                                                                 
  APM, various basis sets, CI-OPT, improved COSX, DLPNO-Multilevel,           
  DOCKER, DRACO, updates on ESD, Fragmentator, GOAT, IRC, LR-CPCM, L-BFGS, MBIS, meta-GGA TD-DFT gradient, ML-optimized integration grids, 
  MM, NACMEs, nearIR, NEB, NEB-TS, NL-DFT gradient (VV10), 2- and 3-layer-ONIOM, interface openCOSMO-RS, QMMM,   
  Crystal-QMMM, RESP, rigid body optimization, SF, symmetry and pop. for TD-DFT, various functionals, SOLVATOR                                   
                                                                         
[Other institutions]                                                     
  V. Asgeirsson          : NEB                                           
  Christoph Bannwarth    : sTDA-DFT, sTD-DFT, PBEh-3c, B97-3c, D3        
  Giovanni Bistoni       : ETS/NOCV, ADLD/ADEX, COVALED                  
  Martin Brehm           : Molecular dynamics                            
  Ronald Cardenas        : ETS/NOCV                                      
  Martina Colucci        : COVALED                                       
  Sebastian Ehlert       : rSCAN, r2SCAN, r2SCAN-3c, D4, dhf basis sets  
  Marvin Friede          : D4 for Fr, Ra, Ac-Lr                          
  Lars Goerigk           : TD-DFT with DH, B97 family of functionals     
  Stefan Grimme          : VdW corrections, initial TS optimization, DFT functionals, gCP, sTDA/sTD-DF 
  Waldemar Hujo          : DFT-NL                                        
  H. Jonsson             : NEB                                           
  Holger Kruse           : gCP                                           
  Marcel Mueller         : wB97X-3c, vDZP basis set                      
  Hagen Neugebauer       : wr2SCAN, Native XTB                           
  Gianluca Regni         : ADLD/ADEX                                     
  Tobias Risthaus        : pre 6.0 range-separated hybrid DFT and stability analysis
  Lukas Wittmann         : regularized MP2, r2SCAN double-hybrids, wr2SCAN        
                                                                         
We gratefully acknowledge several colleagues who have allowed us to      
interface, adapt or use parts of their codes:                            
  Ed Valeev, F. Pavosevic, A. Kumar             : LibInt (2-el integral package), F12 methods 
  Garnet Chan, S. Sharma, J. Yang, R. Olivares  : DMRG                   
  Ulf Ekstrom                                   : XCFun DFT Library      
  Mihaly Kallay                                 : mrcc  (arbitrary order and MRCC methods)
  Frank Weinhold                                : gennbo (NPA and NBO analysis)           
  Simon Mueller                                 : openCOSMO-RS                            
  Christopher J. Cramer and Donald G. Truhlar   : smd solvation model                     
  S Lehtola, MJT Oliveira, MAL Marques          : LibXC Library                           
  Liviu Ungur et al                             : ANISO software                          


 Your calculation uses the libint2 library for the computation of 2-el integrals
 For citations please refer to: http://libint.valeyev.net

 Your ORCA version has been built with support for libXC version: 7.0.0
 For citations please refer to: https://libxc.gitlab.io

 This ORCA versions uses:
   CBLAS   interface :  Fast vector & matrix operations
   LAPACKE interface :  Fast linear algebra routines
   SCALAPACK package :  Parallel linear algebra routines
   Shared memory     :  Shared parallel matrices
   BLAS/LAPACK       :  OpenBLAS 0.3.29  USE64BITINT DYNAMIC_ARCH NO_AFFINITY Zen SINGLE_THREADED
        Core in use  :  Zen
   Copyright (c) 2011-2014, The OpenBLAS Project


  ***********************************
  * Starting time: Wed Sep 10 13:36:53 2025
  * Host name:     wyk-Server
  * Process ID:    2302875
  * Working dir.:  /home/wyk/Documents/code/openQDC/MGMR/singlepointcalc/80/prod
  ***********************************

Your calculation utilizes the atom-pairwise dispersion correction
with the Becke-Johnson damping scheme (D3BJ)


Warning: RI is on but no J-basis has been assigned. Assigning Def2/J (nothing to worry about!)
================================================================================

----- Orbital basis set information -----
Your calculation utilizes the basis: def2-SVP
   F. Weigend and R. Ahlrichs, Phys. Chem. Chem. Phys. 7, 3297 (2005).

----- AuxJ basis set information -----
Your calculation utilizes the auxiliary basis: def2/J
   H-Rn: F. Weigend, Phys. Chem. Chem. Phys. 8, 1057 (2006).
   Fr-Lr: K. Eichkorn, F. Weigend, O. Treutler, R. Ahlrichs; Theor. Chem. Acc. 97, 119 (1997).

================================================================================
                                        WARNINGS
                       Please study these warnings very carefully!
================================================================================


================================================================================
                                       INPUT FILE
================================================================================
NAME = orca.inp
|  1> ! B3LYP def2-SVP d3 EnGrad 
|  2> %pal nprocs 6 end 
|  3> *xyz 0 1 
|  4> C   -1.05129299680808 -1.09240699010834 -0.02478911346724
|  5> C   -1.63596015971938 -0.00056716021651 -0.90352890141637
|  6> C   -1.60527580204701 0.93334068241557 0.06369819504419
|  7> C   -1.00960032017653 0.00029370226521 1.10288911028349
|  8> C   2.77870083597723 -0.26285305781937 0.25085707677326
|  9> C   2.28866279762294 0.60854736044063 -0.63221996163639
| 10> H   -1.96416277146476 0.00687706967382 -1.94711944654018
| 11> H   -1.71732465837167 -1.9475008036928 0.18238728296551
| 12> H   -0.06702147794977 -1.48424626347109 -0.33301865954239
| 13> H   3.84266570285454 -0.28673738538234 0.50856028551873
| 14> H   2.13530813189869 -0.98985535879886 0.75690376404313
| 15> H   1.22520614524203 0.6352203921882 -0.89058557240543
| 16> H   2.93381053056946 1.33502659911847 -1.13726529034901
| 17> H   -1.64443123238688 -0.21301676949396 1.97990466597552
| 18> H   0.00107802262211 0.26685159791249 1.45412159010907
| 19> H   -1.89882774786294 1.9864803849689 0.10277197464411
| 20> *
| 21> 
| 22>                          ****END OF INPUT****
================================================================================

                     *******************************
                     * Energy+Gradient Calculation *
                     *******************************

---------------------------------
CARTESIAN COORDINATES (ANGSTROEM)
---------------------------------
  C     -1.051293   -1.092407   -0.024789
  C     -1.635960   -0.000567   -0.903529
  C     -1.605276    0.933341    0.063698
  C     -1.009600    0.000294    1.102889
  C      2.778701   -0.262853    0.250857
  C      2.288663    0.608547   -0.632220
  H     -1.964163    0.006877   -1.947119
  H     -1.717325   -1.947501    0.182387
  H     -0.067021   -1.484246   -0.333019
  H      3.842666   -0.286737    0.508560
  H      2.135308   -0.989855    0.756904
  H      1.225206    0.635220   -0.890586
  H      2.933811    1.335027   -1.137265
  H     -1.644431   -0.213017    1.979905
  H      0.001078    0.266852    1.454122
  H     -1.898828    1.986480    0.102772

----------------------------
CARTESIAN COORDINATES (A.U.)
----------------------------
  NO LB      ZA    FRAG     MASS         X           Y           Z
   0 C     6.0000    0    12.011   -1.986656   -2.064350   -0.046845
   1 C     6.0000    0    12.011   -3.091517   -0.001072   -1.707422
   2 C     6.0000    0    12.011   -3.033532    1.763758    0.120372
   3 C     6.0000    0    12.011   -1.907868    0.000555    2.084158
   4 C     6.0000    0    12.011    5.250984   -0.496720    0.474051
   5 C     6.0000    0    12.011    4.324946    1.149988   -1.194723
   6 H     1.0000    0     1.008   -3.711730    0.012996   -3.679523
   7 H     1.0000    0     1.008   -3.245273   -3.680243    0.344662
   8 H     1.0000    0     1.008   -0.126652   -2.804819   -0.629314
   9 H     1.0000    0     1.008    7.261586   -0.541855    0.961040
  10 H     1.0000    0     1.008    4.035148   -1.870556    1.430341
  11 H     1.0000    0     1.008    2.315304    1.200393   -1.682963
  12 H     1.0000    0     1.008    5.544098    2.522835   -2.149120
  13 H     1.0000    0     1.008   -3.107525   -0.402543    3.741478
  14 H     1.0000    0     1.008    0.002037    0.504276    2.747892
  15 H     1.0000    0     1.008   -3.588264    3.753904    0.194211

--------------------------------
INTERNAL COORDINATES (ANGSTROEM)
--------------------------------
 C      0   0   0     0.000000000000     0.00000000     0.00000000
 C      1   0   0     1.518595904265     0.00000000     0.00000000
 C      2   1   0     1.344861942529    94.26251328     0.00000000
 C      3   2   1     1.518329247952    94.26987356     0.24507772
 C      4   3   2     3.891841524675   105.87833422    77.80789864
 C      5   4   3     1.333904428265    75.11778156     2.86500797
 H      2   1   3     1.094008042378   132.25097898   180.24823612
 H      1   2   3     1.103497015616   115.68336689   115.34004896
 H      1   2   3     1.103328551275   115.92195664   243.89208850
 H      5   4   3     1.094989791208   153.60705884   136.59133124
 H      5   4   3     1.094792111311    51.07188538   207.15248903
 H      6   5   4     1.094716534517   121.94082919   337.86824461
 H      6   5   4     1.095015280994   121.48693608   157.92799878
 H      4   3   2     1.103479917980   115.91613282   244.10615433
 H      4   3   2     1.102673151581   115.40722507   115.36828306
 H      3   2   1     1.093984797992   133.47711522   180.22675075

---------------------------
INTERNAL COORDINATES (A.U.)
---------------------------
 C      0   0   0     0.000000000000     0.00000000     0.00000000
 C      1   0   0     2.869730367155     0.00000000     0.00000000
 C      2   1   0     2.541420759313    94.26251328     0.00000000
 C      3   2   1     2.869226459751    94.26987356     0.24507772
 C      4   3   2     7.354514638259   105.87833422    77.80789864
 C      5   4   3     2.520714058245    75.11778156     2.86500797
 H      2   1   3     2.067375588401   132.25097898   180.24823612
 H      1   2   3     2.085307149115   115.68336689   115.34004896
 H      1   2   3     2.084988797646   115.92195664   243.89208850
 H      5   4   3     2.069230824823   153.60705884   136.59133124
 H      5   4   3     2.068857263954    51.07188538   207.15248903
 H      6   5   4     2.068714444512   121.94082919   337.86824461
 H      6   5   4     2.069278993538   121.48693608   157.92799878
 H      4   3   2     2.085274839265   115.91613282   244.10615433
 H      4   3   2     2.083750271717   115.40722507   115.36828306
 H      3   2   1     2.067331662879   133.47711522   180.22675075

---------------------
BASIS SET INFORMATION
---------------------
There are 2 groups of distinct atoms

 Group   1 Type C   : 7s4p1d contracted to 3s2p1d pattern {511/31/1}
 Group   2 Type H   : 4s1p contracted to 2s1p pattern {31/1}

Atom   0C    basis set group =>   1
Atom   1C    basis set group =>   1
Atom   2C    basis set group =>   1
Atom   3C    basis set group =>   1
Atom   4C    basis set group =>   1
Atom   5C    basis set group =>   1
Atom   6H    basis set group =>   2
Atom   7H    basis set group =>   2
Atom   8H    basis set group =>   2
Atom   9H    basis set group =>   2
Atom  10H    basis set group =>   2
Atom  11H    basis set group =>   2
Atom  12H    basis set group =>   2
Atom  13H    basis set group =>   2
Atom  14H    basis set group =>   2
Atom  15H    basis set group =>   2
---------------------------------
AUXILIARY/J BASIS SET INFORMATION
---------------------------------
There are 2 groups of distinct atoms

 Group   1 Type C   : 12s5p4d2f1g contracted to 6s4p3d1f1g pattern {711111/2111/211/2/1}
 Group   2 Type H   : 5s2p1d contracted to 3s1p1d pattern {311/2/1}

Atom   0C    basis set group =>   1
Atom   1C    basis set group =>   1
Atom   2C    basis set group =>   1
Atom   3C    basis set group =>   1
Atom   4C    basis set group =>   1
Atom   5C    basis set group =>   1
Atom   6H    basis set group =>   2
Atom   7H    basis set group =>   2
Atom   8H    basis set group =>   2
Atom   9H    basis set group =>   2
Atom  10H    basis set group =>   2
Atom  11H    basis set group =>   2
Atom  12H    basis set group =>   2
Atom  13H    basis set group =>   2
Atom  14H    basis set group =>   2
Atom  15H    basis set group =>   2


           ************************************************************
           *        Program running with 6 parallel MPI-processes     *
           *              working on a common directory               *
           ************************************************************
------------------------------------------------------------------------------
                             ORCA STARTUP CALCULATIONS
                           -- RI-GTO INTEGRALS CHOSEN --
------------------------------------------------------------------------------
------------------------------------------------------------------------------
                   ___                                                        
                  /   \      - P O W E R E D   B Y -                         
                 /     \                                                     
                 |  |  |   _    _      __       _____    __    __             
                 |  |  |  | |  | |    /  \     |  _  \  |  |  /  |          
                  \  \/   | |  | |   /    \    | | | |  |  | /  /          
                 / \  \   | |__| |  /  /\  \   | |_| |  |  |/  /          
                |  |  |   |  __  | /  /__\  \  |    /   |      \           
                |  |  |   | |  | | |   __   |  |    \   |  |\   \          
                \     /   | |  | | |  |  |  |  | |\  \  |  | \   \       
                 \___/    |_|  |_| |__|  |__|  |_| \__\ |__|  \__/        
                                                                              
                      - O R C A' S   B I G   F R I E N D -                    
                                      &                                       
                       - I N T E G R A L  F E E D E R -                       
                                                                              
 v1 FN, 2020, v2 2021, v3 2022-2024                                           
------------------------------------------------------------------------------


----------------------
SHARK INTEGRAL PACKAGE
----------------------

Number of atoms                             ...     16
Number of basis functions                   ...    134
Number of shells                            ...     66
Maximum angular momentum                    ...      2
Integral batch strategy                     ... SHARK/LIBINT Hybrid
RI-J (if used) integral strategy            ... SPLIT-RIJ (Revised 2003 algorithm where possible)
Printlevel                                  ...      1
Contraction scheme used                     ... SEGMENTED contraction
Prescreening option                         ... SCHWARTZ
   Thresh                                   ... 2.500e-11
   Tcut                                     ... 2.500e-12
   Tpresel                                  ... 2.500e-12 
Coulomb Range Separation                    ... NOT USED
Exchange Range Separation                   ... NOT USED
Multipole approximations                    ... NOT USED
Finite Nucleus Model                        ... NOT USED
CABS basis                                  ... NOT available
Auxiliary Coulomb fitting basis             ... AVAILABLE
   # of basis functions in Aux-J            ...    404
   # of shells in Aux-J                     ...    140
   Maximum angular momentum in Aux-J        ...      4
Auxiliary J/K fitting basis                 ... NOT available
Auxiliary Correlation fitting basis         ... NOT available
Auxiliary 'external' fitting basis          ... NOT available

Checking pre-screening integrals            ... done (  0.0 sec) Dimension = 66
   => SHARK Basis and OBASIS are compatible. Storing Pre-screening
Shell pair information
Shell pair cut-off parameter TPreSel        ...   2.5e-12
Total number of shell pairs                 ...      2211
Shell pairs after pre-screening             ...      2092
Total number of primitive shell pairs       ...      7611
Primitive shell pairs kept                  ...      5416
          la=0 lb=0:    704 shell pairs
          la=1 lb=0:    799 shell pairs
          la=1 lb=1:    239 shell pairs
          la=2 lb=0:    210 shell pairs
          la=2 lb=1:    119 shell pairs
          la=2 lb=2:     21 shell pairs

Checking whether 4 symmetric matrices of dimension 134 fit in memory
:Max Core in MB      =   4096.00
 MB in use           =      5.95
 MB left             =   4090.05
 MB needed           =      0.28
 Data fit in memory  = YES
Calculating RI/J V-Matrix + Cholesky decomp.... done (  0.0 sec)
Calculating Nuclear repulsion               ... done (  0.0 sec) ENN=    208.952102403273 Eh

Diagonalization of the overlap matrix:
Smallest eigenvalue                        ... 5.394e-04
Time for diagonalization                   ...    0.003 sec
Threshold for overlap eigenvalues          ... 1.000e-07
Number of eigenvalues below threshold      ... 0
Time for construction of square roots      ...    0.001 sec
Total time needed                          ...    0.005 sec

-------------------
DFT GRID GENERATION
-------------------

General Integration Accuracy     IntAcc      ... 4.388
Radial Grid Type                 RadialGrid  ... OptM3 with GC (2021)
Angular Grid (max. ang.)         AngularGrid ... 4 (Lebedev-302)
Angular grid pruning method      GridPruning ... 4 (adaptive)
Weight generation scheme         WeightScheme... mBecke (2022)
Basis function cutoff            BFCut       ... 1.0000e-11
Integration weight cutoff        WCut        ... 1.0000e-14
Partially contracted basis set               ... off
Rotationally invariant grid construction     ... off
Angular grids for H and He will be reduced by one unit

Total number of grid points                  ...    68518
Total number of batches                      ...     1081
Average number of points per batch           ...       63
Average number of grid points per atom       ...     4282

--------------------
COSX GRID GENERATION
--------------------

GRIDX 1
-------
General Integration Accuracy     IntAcc      ... 3.816
Radial Grid Type                 RadialGrid  ... OptM3 with GC (2021)
Angular Grid (max. ang.)         AngularGrid ... 1 (Lebedev-50)
Angular grid pruning method      GridPruning ... 4 (adaptive)
Weight generation scheme         WeightScheme... mBecke (2022)
Basis function cutoff            BFCut       ... 1.0000e-11
Integration weight cutoff        WCut        ... 1.0000e-14
Partially contracted basis set               ... on
Rotationally invariant grid construction     ... off
Angular grids for H and He will be reduced by one unit

Total number of grid points                  ...     8806
Total number of batches                      ...       79
Average number of points per batch           ...      111
Average number of grid points per atom       ...      550
UseSFitting                                  ... on

GRIDX 2
-------
General Integration Accuracy     IntAcc      ... 4.020
Radial Grid Type                 RadialGrid  ... OptM3 with GC (2021)
Angular Grid (max. ang.)         AngularGrid ... 2 (Lebedev-110)
Angular grid pruning method      GridPruning ... 4 (adaptive)
Weight generation scheme         WeightScheme... mBecke (2022)
Basis function cutoff            BFCut       ... 1.0000e-11
Integration weight cutoff        WCut        ... 1.0000e-14
Partially contracted basis set               ... on
Rotationally invariant grid construction     ... off
Angular grids for H and He will be reduced by one unit

Total number of grid points                  ...    18527
Total number of batches                      ...      152
Average number of points per batch           ...      121
Average number of grid points per atom       ...     1158
UseSFitting                                  ... on

GRIDX 3
-------
General Integration Accuracy     IntAcc      ... 4.338
Radial Grid Type                 RadialGrid  ... OptM3 with GC (2021)
Angular Grid (max. ang.)         AngularGrid ... 3 (Lebedev-194)
Angular grid pruning method      GridPruning ... 4 (adaptive)
Weight generation scheme         WeightScheme... mBecke (2022)
Basis function cutoff            BFCut       ... 1.0000e-11
Integration weight cutoff        WCut        ... 1.0000e-14
Partially contracted basis set               ... on
Rotationally invariant grid construction     ... off
Angular grids for H and He will be reduced by one unit

Total number of grid points                  ...    40476
Total number of batches                      ...      327
Average number of points per batch           ...      123
Average number of grid points per atom       ...     2530
UseSFitting                                  ... on
Grids setup in   0.8 sec
Initializing property integral containers    ... done (  0.0 sec)

SHARK setup successfully completed in   1.0 seconds

Maximum memory used throughout the entire STARTUP-calculation: 18.1 MB


           ************************************************************
           *        Program running with 6 parallel MPI-processes     *
           *              working on a common directory               *
           ************************************************************
-------------------------------------------------------------------------------
                                 ORCA GUESS
                   Start orbitals & Density for SCF / CASSCF
-------------------------------------------------------------------------------

------------
SCF SETTINGS
------------
Hamiltonian:
 Density Functional     Method          .... DFT(GTOs)
 Exchange Functional    Exchange        .... B88
   X-Alpha parameter    XAlpha          ....  0.666667
   Becke's b parameter  XBeta           ....  0.004200
 Correlation Functional Correlation     .... LYP
 LDA part of GGA corr.  LDAOpt          .... VWN-5
 Gradients option       PostSCFGGA      .... off
 Hybrid DFT is turned on
   Fraction HF Exchange ScalHFX         ....  0.200000
   Scaling of DF-GGA-X  ScalDFX         ....  0.720000
   Scaling of DF-GGA-C  ScalDFC         ....  0.810000
   Scaling of DF-LDA-C  ScalLDAC        ....  1.000000
   Perturbative correction              ....  0.000000
   NL short-range parameter             ....  4.800000
 RI-approximation to the Coulomb term is turned on
   Number of AuxJ basis functions       .... 404
   RIJ-COSX (HFX calculated with COS-X)).... on


General Settings:
 Integral files         IntName         .... orca
 Hartree-Fock type      HFTyp           .... RHF
 Total Charge           Charge          ....    0
 Multiplicity           Mult            ....    1
 Number of Electrons    NEL             ....   46
 Basis Dimension        Dim             ....  134
 Nuclear Repulsion      ENuc            ....    208.9521024033 Eh

Convergence Acceleration:
 AO-DIIS                CNVDIIS         .... on
   Start iteration      DIISMaxIt       ....    12
   Startup error        DIISStart       ....  0.200000
   # of expansion vecs  DIISMaxEq       ....     5
   Bias factor          DIISBfac        ....   1.050
   Max. coefficient     DIISMaxC        ....  10.000
 MO-DIIS                CNVKDIIS        .... off
 Trust-Rad. Augm. Hess. CNVTRAH         .... auto
   Auto Start mean grad. ratio tolernc. ....  1.125000
   Auto Start start iteration           ....    50
   Auto Start num. interpolation iter.  ....    10
   Max. Number of Micro iterations      ....    24
   Max. Number of Macro iterations      .... Maxiter - #DIIS iter
   Number of Davidson start vectors     ....     2
   Converg. threshold    (grad. norm)   ....   1.000e-05
   Grad. Scal. Fac. for Micro threshold ....   0.100
   Minimum threshold for Micro iter.    ....   1.000e-02
   NR start threshold (gradient norm)   ....   1.000e-04
   Initial trust radius                 ....   0.400
   Minimum AH scaling param. (alpha)    ....   1.000
   Maximum AH scaling param. (alpha)    .... 1000.000
   Quad. conv. algorithm                .... NR
   White noise on init. David. guess    .... on
   Maximum white noise                  ....   0.010
   Pseudo random numbers                .... off
   Inactive MOs                         .... canonical
   Orbital update algorithm             .... Taylor
   Preconditioner                       .... Diag
   Full preconditioner red. dimension   ....   250
 SOSCF                 CNVSOSCF           .... on
   Start iteration     SOSCFMaxIt         ....   150
   Startup grad/error  SOSCFStart         ....  0.003300
   Hessian update      SOSCFHessUp        .... L-BFGS
   Autom. constraints  SOSCFAutoConstrain .... off
 Level Shifting         CNVShift        .... on
   Level shift para.    LevelShift      ....    0.2500
   Turn off err/grad.   ShiftErr        ....    0.0010
 Zerner damping         CNVZerner       .... off
 Static damping         CNVDamp         .... on
   Fraction old density DampFac         ....    0.7000
   Max. Damping (<1)    DampMax         ....    0.9800
   Min. Damping (>=0)   DampMin         ....    0.0000
   Turn off err/grad.   DampErr         ....    0.1000

SCF Procedure:
 Maximum # iterations   MaxIter         ....   125
 SCF integral mode      SCFMode         .... Direct
   Integral package                     .... SHARK and LIBINT hybrid scheme
 Reset frequency        DirectResetFreq ....    20
 Integral Threshold     Thresh          ....  2.500e-11 Eh
 Primitive CutOff       TCut            ....  2.500e-12 Eh

Convergence Tolerance:
 Convergence Check Mode ConvCheckMode   .... Total+1el-Energy
 Convergence forced     ConvForced      .... 0
 Energy Change          TolE            ....  1.000e-08 Eh
 1-El. energy change                    ....  1.000e-05 Eh
 Orbital Gradient       TolG            ....  1.000e-05
 Orbital Rotation angle TolX            ....  1.000e-05
 DIIS Error             TolErr          ....  5.000e-07

------------------------------
INITIAL GUESS: MODEL POTENTIAL
------------------------------
Loading Hartree-Fock densities                     ... done
Calculating cut-offs                               ... done
Initializing the effective Hamiltonian             ... done
Setting up the integral package (SHARK)            ... done
Starting the Coulomb interaction                   ... done (   0.0 sec)
Making the grid                                    ... done (   0.1 sec)
Mapping shells                                     ... done
Starting the XC term evaluation                    ... done (   0.0 sec)
  promolecular density results
     # of electrons  =     45.992615561
     EX              =    -33.723961437
     EC              =     -1.457525795
     EX+EC           =    -35.181487232
Transforming the Hamiltonian                       ... done (   0.0 sec)
Diagonalizing the Hamiltonian                      ... done (   0.0 sec)
Back transforming the eigenvectors                 ... done (   0.0 sec)
Now organizing SCF variables                       ... done
                      ------------------
                      INITIAL GUESS DONE (   0.2 sec)
                      ------------------
             **** ENERGY FILE WAS UPDATED (orca.en.tmp) ****
Finished Guess after   0.3 sec
Maximum memory used throughout the entire GUESS-calculation: 8.5 MB


           ************************************************************
           *        Program running with 6 parallel MPI-processes     *
           *              working on a common directory               *
           ************************************************************

-------------------------------------------------------------------------------------------
                                      ORCA LEAN-SCF
                              memory conserving SCF solver
-------------------------------------------------------------------------------------------

----------------------------------------D-I-I-S--------------------------------------------
Iteration    Energy (Eh)           Delta-E    RMSDP     MaxDP     DIISErr   Damp  Time(sec)
-------------------------------------------------------------------------------------------
               ***  Starting incremental Fock matrix formation  ***
    1    -234.0421324400052185     0.00e+00  8.48e-03  6.71e-02  1.46e-01  0.700   0.8
    2    -234.1261419457856050    -8.40e-02  6.09e-03  4.17e-02  8.03e-02  0.700   0.5
                               ***Turning on AO-DIIS***
    3    -234.1614626702859709    -3.53e-02  2.58e-03  1.32e-02  3.38e-02  0.700   0.5
    4    -234.1816943036326393    -2.02e-02  4.62e-03  2.46e-02  1.69e-02  0.000   0.5
    5    -234.2252566305306800    -4.36e-02  7.04e-04  3.41e-03  5.97e-03  0.000   0.5
                              *** Initializing SOSCF ***
---------------------------------------S-O-S-C-F--------------------------------------
Iteration    Energy (Eh)           Delta-E    RMSDP     MaxDP     MaxGrad    Time(sec)
--------------------------------------------------------------------------------------
    6    -234.2255188194619109    -2.62e-04  2.74e-04  1.53e-03  1.33e-03     0.5
               *** Restarting incremental Fock matrix formation ***
    7    -234.2255782053269400    -5.94e-05  1.80e-04  1.09e-03  2.59e-04     0.8
    8    -234.2255788273669168    -6.22e-07  4.13e-05  5.58e-04  2.97e-04     0.6
    9    -234.2255799347975653    -1.11e-06  1.59e-05  1.46e-04  4.69e-05     0.6
   10    -234.2255799068629472     2.79e-08  7.64e-06  9.96e-05  7.39e-05     0.5
   11    -234.2255799537327334    -4.69e-08  2.47e-06  1.20e-05  4.79e-06     0.5
   12    -234.2255799598187878    -6.09e-09  9.59e-07  8.08e-06  3.23e-06     0.4
                 **** Energy Check signals convergence ****

               *****************************************************
               *                     SUCCESS                       *
               *           SCF CONVERGED AFTER  12 CYCLES          *
               *****************************************************

Recomputing exchange energy using gridx3       ... done (    1.138 sec)
Old exchange energy                            :     -6.895884609 Eh
New exchange energy                            :     -6.895921142 Eh
Exchange energy change after final integration :     -0.000036533 Eh
Total energy after final integration           :   -234.225616494 Eh
             **** ENERGY FILE WAS UPDATED (orca.en.tmp) ****

----------------
TOTAL SCF ENERGY
----------------

Total Energy       :       -234.22561649368072 Eh           -6373.60305 eV

Components:
Nuclear Repulsion  :        208.95210240327322 Eh            5685.87577 eV
Electronic Energy  :       -443.17768236399297 Eh          -12059.47783 eV
One Electron Energy:       -727.20800994496449 Eh          -19788.33597 eV
Two Electron Energy:        284.03032758097152 Eh            7728.85814 eV

Virial components:
Potential Energy   :       -465.63482914826875 Eh          -12670.56786 eV
Kinetic Energy     :        231.40921265458803 Eh            6296.96481 eV
Virial Ratio       :          2.01217066428248

DFT components:
N(Alpha)           :       22.999956950182 electrons
N(Beta)            :       22.999956950182 electrons
N(Total)           :       45.999913900364 electrons
E(X)               :      -27.336256127428 Eh       
E(C)               :       -1.736813818816 Eh       
E(XC)              :      -29.073069946244 Eh       

---------------
SCF CONVERGENCE
---------------

  Last Energy change         ...    6.0861e-09  Tolerance :   1.0000e-08
  Last MAX-Density change    ...    8.0778e-06  Tolerance :   1.0000e-07
  Last RMS-Density change    ...    9.5872e-07  Tolerance :   5.0000e-09
  Last DIIS Error            ...    1.3320e-03  Tolerance :   5.0000e-07
  Last Orbital Gradient      ...    3.2268e-06  Tolerance :   1.0000e-05
  Last Orbital Rotation      ...    4.3712e-06  Tolerance :   1.0000e-05


----------------
ORBITAL ENERGIES
----------------

  NO   OCC          E(Eh)            E(eV) 
   0   2.0000     -10.186523      -277.1894 
   1   2.0000     -10.185600      -277.1643 
   2   2.0000     -10.185452      -277.1602 
   3   2.0000     -10.184416      -277.1320 
   4   2.0000     -10.184173      -277.1254 
   5   2.0000     -10.183472      -277.1064 
   6   2.0000      -0.847110       -23.0510 
   7   2.0000      -0.746746       -20.3200 
   8   2.0000      -0.645350       -17.5609 
   9   2.0000      -0.633180       -17.2297 
  10   2.0000      -0.567237       -15.4353 
  11   2.0000      -0.505834       -13.7644 
  12   2.0000      -0.495429       -13.4813 
  13   2.0000      -0.469529       -12.7765 
  14   2.0000      -0.446621       -12.1532 
  15   2.0000      -0.415609       -11.3093 
  16   2.0000      -0.381163       -10.3720 
  17   2.0000      -0.358029        -9.7425 
  18   2.0000      -0.350366        -9.5339 
  19   2.0000      -0.328381        -8.9357 
  20   2.0000      -0.318759        -8.6739 
  21   2.0000      -0.271131        -7.3778 
  22   2.0000      -0.250140        -6.8067 
  23   0.0000       0.006604         0.1797 
  24   0.0000       0.017942         0.4882 
  25   0.0000       0.067096         1.8258 
  26   0.0000       0.095342         2.5944 
  27   0.0000       0.100115         2.7243 
  28   0.0000       0.105087         2.8596 
  29   0.0000       0.109704         2.9852 
  30   0.0000       0.123055         3.3485 
  31   0.0000       0.131401         3.5756 
  32   0.0000       0.166893         4.5414 
  33   0.0000       0.170977         4.6525 
*Only the first 10 virtual orbitals were printed.

                    ********************************
                    * MULLIKEN POPULATION ANALYSIS *
                    ********************************

-----------------------
MULLIKEN ATOMIC CHARGES
-----------------------
   0 C :    0.049486
   1 C :   -0.078338
   2 C :   -0.079173
   3 C :    0.055096
   4 C :   -0.061399
   5 C :   -0.064913
   6 H :   -0.009766
   7 H :    0.016187
   8 H :    0.020085
   9 H :    0.025753
  10 H :    0.031406
  11 H :    0.042066
  12 H :    0.025995
  13 H :    0.015681
  14 H :    0.021439
  15 H :   -0.009607
Sum of atomic charges:   -0.0000000

--------------------------------
MULLIKEN REDUCED ORBITAL CHARGES
--------------------------------
  0 C s       :     2.962803  s :     2.962803
      pz      :     0.953847  p :     2.950171
      px      :     0.993441
      py      :     1.002883
      dz2     :     0.006219  d :     0.037540
      dxz     :     0.004543
      dyz     :     0.010007
      dx2y2   :     0.006706
      dxy     :     0.010064

  1 C s       :     3.313934  s :     3.313934
      pz      :     0.791980  p :     2.726122
      px      :     0.974150
      py      :     0.959993
      dz2     :     0.011684  d :     0.038282
      dxz     :     0.006287
      dyz     :     0.010652
      dx2y2   :     0.004101
      dxy     :     0.005558

  2 C s       :     3.315504  s :     3.315504
      pz      :     0.959936  p :     2.725345
      px      :     0.974144
      py      :     0.791265
      dz2     :     0.009100  d :     0.038324
      dxz     :     0.005549
      dyz     :     0.010709
      dx2y2   :     0.006853
      dxy     :     0.006113

  3 C s       :     2.959424  s :     2.959424
      pz      :     1.002866  p :     2.948016
      px      :     0.997079
      py      :     0.948072
      dz2     :     0.007197  d :     0.037464
      dxz     :     0.009401
      dyz     :     0.009969
      dx2y2   :     0.006381
      dxy     :     0.004516

  4 C s       :     3.126627  s :     3.126627
      pz      :     0.983039  p :     2.907500
      px      :     0.946844
      py      :     0.977616
      dz2     :     0.005046  d :     0.027271
      dxz     :     0.005338
      dyz     :     0.004344
      dx2y2   :     0.006755
      dxy     :     0.005788

  5 C s       :     3.130682  s :     3.130682
      pz      :     0.974384  p :     2.907002
      px      :     0.962997
      py      :     0.969621
      dz2     :     0.005122  d :     0.027228
      dxz     :     0.005315
      dyz     :     0.004317
      dx2y2   :     0.006656
      dxy     :     0.005818

  6 H s       :     0.987067  s :     0.987067
      pz      :     0.013940  p :     0.022698
      px      :     0.005421
      py      :     0.003337

  7 H s       :     0.961887  s :     0.961887
      pz      :     0.004249  p :     0.021926
      px      :     0.007859
      py      :     0.009818

  8 H s       :     0.957939  s :     0.957939
      pz      :     0.004680  p :     0.021976
      px      :     0.012048
      py      :     0.005249

  9 H s       :     0.951061  s :     0.951061
      pz      :     0.004864  p :     0.023186
      px      :     0.014069
      py      :     0.004253

 10 H s       :     0.945336  s :     0.945336
      pz      :     0.006539  p :     0.023258
      px      :     0.007902
      py      :     0.008817

 11 H s       :     0.934317  s :     0.934317
      pz      :     0.004838  p :     0.023616
      px      :     0.014521
      py      :     0.004257

 12 H s       :     0.950837  s :     0.950837
      pz      :     0.006488  p :     0.023168
      px      :     0.007844
      py      :     0.008836

 13 H s       :     0.962429  s :     0.962429
      pz      :     0.010126  p :     0.021890
      px      :     0.007517
      py      :     0.004247

 14 H s       :     0.956429  s :     0.956429
      pz      :     0.004989  p :     0.022132
      px      :     0.012646
      py      :     0.004496

 15 H s       :     0.986936  s :     0.986936
      pz      :     0.003371  p :     0.022671
      px      :     0.005169
      py      :     0.014132



                     *******************************
                     * LOEWDIN POPULATION ANALYSIS *
                     *******************************

----------------------
LOEWDIN ATOMIC CHARGES
----------------------
   0 C :   -0.021410
   1 C :   -0.034275
   2 C :   -0.030322
   3 C :   -0.020601
   4 C :   -0.050850
   5 C :   -0.045274
   6 H :    0.011274
   7 H :    0.022335
   8 H :    0.020188
   9 H :    0.023330
  10 H :    0.020171
  11 H :    0.026066
  12 H :    0.024129
  13 H :    0.021772
  14 H :    0.021911
  15 H :    0.011557

-------------------------------
LOEWDIN REDUCED ORBITAL CHARGES
-------------------------------
  0 C s       :     2.849601  s :     2.849601
      pz      :     1.020867  p :     3.082491
      px      :     1.056801
      py      :     1.004823
      dz2     :     0.013473  d :     0.089318
      dxz     :     0.010103
      dyz     :     0.026580
      dx2y2   :     0.014619
      dxy     :     0.024544

  1 C s       :     2.893854  s :     2.893854
      pz      :     1.026538  p :     3.047945
      px      :     0.975184
      py      :     1.046224
      dz2     :     0.027951  d :     0.092476
      dxz     :     0.012291
      dyz     :     0.031065
      dx2y2   :     0.009303
      dxy     :     0.011866

  2 C s       :     2.893841  s :     2.893841
      pz      :     1.048394  p :     3.044002
      px      :     0.971434
      py      :     1.024173
      dz2     :     0.021200  d :     0.092478
      dxz     :     0.011674
      dyz     :     0.031419
      dx2y2   :     0.016297
      dxy     :     0.011888

  3 C s       :     2.849473  s :     2.849473
      pz      :     1.004462  p :     3.081932
      px      :     1.058638
      py      :     1.018832
      dz2     :     0.014400  d :     0.089195
      dxz     :     0.022684
      dyz     :     0.026664
      dx2y2   :     0.015397
      dxy     :     0.010051

  4 C s       :     2.890340  s :     2.890340
      pz      :     1.018648  p :     3.090617
      px      :     1.045263
      py      :     1.026706
      dz2     :     0.010574  d :     0.069892
      dxz     :     0.014368
      dyz     :     0.012417
      dx2y2   :     0.017391
      dxy     :     0.015143

  5 C s       :     2.890780  s :     2.890780
      pz      :     1.012205  p :     3.084922
      px      :     1.051157
      py      :     1.021560
      dz2     :     0.010709  d :     0.069571
      dxz     :     0.014240
      dyz     :     0.012430
      dx2y2   :     0.017043
      dxy     :     0.015149

  6 H s       :     0.919561  s :     0.919561
      pz      :     0.040828  p :     0.069165
      px      :     0.016834
      py      :     0.011503

  7 H s       :     0.911993  s :     0.911993
      pz      :     0.013515  p :     0.065672
      px      :     0.022796
      py      :     0.029361

  8 H s       :     0.913445  s :     0.913445
      pz      :     0.014921  p :     0.066367
      px      :     0.035222
      py      :     0.016225

  9 H s       :     0.910601  s :     0.910601
      pz      :     0.013677  p :     0.066070
      px      :     0.040516
      py      :     0.011876

 10 H s       :     0.912791  s :     0.912791
      pz      :     0.018769  p :     0.067037
      px      :     0.022744
      py      :     0.025525

 11 H s       :     0.905584  s :     0.905584
      pz      :     0.013768  p :     0.068351
      px      :     0.042643
      py      :     0.011939

 12 H s       :     0.909888  s :     0.909888
      pz      :     0.018328  p :     0.065983
      px      :     0.022578
      py      :     0.025076

 13 H s       :     0.912558  s :     0.912558
      pz      :     0.030251  p :     0.065670
      px      :     0.021912
      py      :     0.013507

 14 H s       :     0.911184  s :     0.911184
      pz      :     0.015426  p :     0.066905
      px      :     0.037111
      py      :     0.014368

 15 H s       :     0.919313  s :     0.919313
      pz      :     0.011497  p :     0.069130
      px      :     0.016168
      py      :     0.041465



                      *****************************
                      * MAYER POPULATION ANALYSIS *
                      *****************************

  NA   - Mulliken gross atomic population
  ZA   - Total nuclear charge
  QA   - Mulliken gross atomic charge
  VA   - Mayer's total valence
  BVA  - Mayer's bonded valence
  FA   - Mayer's free valence

  ATOM       NA         ZA         QA         VA         BVA        FA
  0 C      5.9505     6.0000     0.0495     3.9959     3.9959    -0.0000
  1 C      6.0783     6.0000    -0.0783     3.8501     3.8501    -0.0000
  2 C      6.0792     6.0000    -0.0792     3.8522     3.8522    -0.0000
  3 C      5.9449     6.0000     0.0551     3.9897     3.9897    -0.0000
  4 C      6.0614     6.0000    -0.0614     4.0139     4.0139    -0.0000
  5 C      6.0649     6.0000    -0.0649     4.0128     4.0128    -0.0000
  6 H      1.0098     1.0000    -0.0098     0.9835     0.9835     0.0000
  7 H      0.9838     1.0000     0.0162     0.9746     0.9746    -0.0000
  8 H      0.9799     1.0000     0.0201     0.9848     0.9848    -0.0000
  9 H      0.9742     1.0000     0.0258     0.9743     0.9743    -0.0000
 10 H      0.9686     1.0000     0.0314     0.9825     0.9825    -0.0000
 11 H      0.9579     1.0000     0.0421     0.9928     0.9928     0.0000
 12 H      0.9740     1.0000     0.0260     0.9743     0.9743    -0.0000
 13 H      0.9843     1.0000     0.0157     0.9745     0.9745     0.0000
 14 H      0.9786     1.0000     0.0214     0.9923     0.9923     0.0000
 15 H      1.0096     1.0000    -0.0096     0.9836     0.9836    -0.0000

  Mayer bond orders larger than 0.100000
B(  0-C ,  1-C ) :   1.0448 B(  0-C ,  3-C ) :   1.1224 B(  0-C ,  7-H ) :   0.9191 
B(  0-C ,  8-H ) :   0.9180 B(  1-C ,  2-C ) :   1.7816 B(  1-C ,  6-H ) :   1.0236 
B(  2-C ,  3-C ) :   1.0446 B(  2-C , 15-H ) :   1.0236 B(  3-C , 13-H ) :   0.9198 
B(  3-C , 14-H ) :   0.9159 B(  4-C ,  5-C ) :   2.0710 B(  4-C ,  9-H ) :   0.9595 
B(  4-C , 10-H ) :   0.9572 B(  5-C , 11-H ) :   0.9547 B(  5-C , 12-H ) :   0.9601 


-------
TIMINGS
-------

Total SCF time: 0 days 0 hours 0 min 8 sec 

Total time                  ....       8.400 sec
Sum of individual times     ....       7.962 sec  ( 94.8%)

SCF preparation             ....       0.196 sec  (  2.3%)
Fock matrix formation       ....       7.524 sec  ( 89.6%)
  Startup                   ....       0.005 sec  (  0.1% of F)
  Split-RI-J                ....       0.645 sec  (  8.6% of F)
  Chain of spheres X        ....       5.614 sec  ( 74.6% of F)
  XC integration            ....       1.510 sec  ( 20.1% of F)
    XC Preparation          ....       0.000 sec  (  0.0% of XC)
    Basis function eval.    ....       0.486 sec  ( 32.2% of XC)
    Density eval.           ....       0.256 sec  ( 16.9% of XC)
    XC-Functional eval.     ....       0.098 sec  (  6.5% of XC)
    XC-Potential eval.      ....       0.285 sec  ( 18.9% of XC)
Diagonalization             ....       0.000 sec  (  0.0%)
Density matrix formation    ....       0.029 sec  (  0.3%)
Total Energy calculation    ....       0.016 sec  (  0.2%)
Population analysis         ....       0.023 sec  (  0.3%)
Orbital Transformation      ....       0.019 sec  (  0.2%)
Orbital Orthonormalization  ....       0.000 sec  (  0.0%)
DIIS solution               ....       0.091 sec  (  1.1%)
SOSCF solution              ....       0.064 sec  (  0.8%)
Finished LeanSCF after   8.4 sec

Maximum memory used throughout the entire LEANSCF-calculation: 11.7 MB


-------------------------------------------------------------------------------
                          DFT DISPERSION CORRECTION                            
                                                                               
                              DFTD3 V3.1  Rev 1                                
                          USING Becke-Johnson damping                          
-------------------------------------------------------------------------------
The B3LYP functional is recognized
Active option DFTDOPT                   ...         4   

molecular C6(AA) [au] = 2118.765672 


            DFT-D V3
 parameters
 s6 scaling factor         :     1.0000 
 a1 scaling factor         :     0.3981 
 s8 scaling factor         :     1.9889 
 a2 scaling factor         :     4.4211 
 ad hoc parameters k1-k3   :    16.0000     1.3333    -4.0000 

 Edisp/kcal,au: -12.020689946483  -0.019156186737 
 E6   /kcal   :  -5.924843163 
 E8   /kcal   :  -6.095846784 
 % E8         :  50.711288709 

-------------------------   ----------------
Dispersion correction           -0.019156187
-------------------------   ----------------


-------------------------   --------------------
FINAL SINGLE POINT ENERGY      -234.244772680417
-------------------------   --------------------



           ************************************************************
           *        Program running with 6 parallel MPI-processes     *
           *              working on a common directory               *
           ************************************************************
------------------------------------------------------------------------------
                         ORCA SCF GRADIENT CALCULATION
------------------------------------------------------------------------------

Nuc. rep. gradient        (SHARK) ... done (  0.0 sec)
HCore & Overlap gradient  (SHARK) ... done (  0.0 sec)
Split-RIJ-J gradient      (SHARK) ... done (  0.2 sec)
done (  3.7 sec)
XC gradient                       ... done (  0.9 sec)
Dispersion correction             ... done (  0.1 sec)

-------------------
DISPERSION GRADIENT
-------------------

   1   C   :   -0.000557335    0.000403862    0.000006743
   2   C   :   -0.000193099   -0.000040231    0.000386396
   3   C   :   -0.000211162   -0.000376800    0.000038054
   4   C   :   -0.000579914    0.000025949   -0.000381587
   5   C   :    0.000606700   -0.000022766    0.000018479
   6   C   :    0.000698985    0.000214509   -0.000225128
   7   H   :   -0.000126789    0.000018476   -0.000197428
   8   H   :   -0.000084272   -0.000247600   -0.000000731
   9   H   :   -0.000095701   -0.000319715   -0.000069052
  10   H   :    0.000114783   -0.000037593    0.000046831
  11   H   :    0.000292339   -0.000113895    0.000086272
  12   H   :    0.000343534    0.000148489   -0.000197252
  13   H   :    0.000077094    0.000089561   -0.000081136
  14   H   :   -0.000074217   -0.000004140    0.000250875
  15   H   :   -0.000093144    0.000060104    0.000325753
  16   H   :   -0.000117803    0.000201789   -0.000007089

Difference to translation invariance:
           :   -0.0000000000   -0.0000000000   -0.0000000000

Difference to rotation invariance:
           :   -0.0000000000   -0.0000000000    0.0000000000

Norm of the Dispersion gradient    ...    0.0017579643
RMS gradient                       ...    0.0002537403
MAX gradient                       ...    0.0006989849

------------------
CARTESIAN GRADIENT
------------------

   1   C   :    0.000112951   -0.000154982   -0.000131491
   2   C   :    0.000028408    0.000012541    0.000086493
   3   C   :   -0.000108672    0.000163781    0.000102522
   4   C   :    0.000282397   -0.000086126    0.000120653
   5   C   :    0.000096307   -0.000290282    0.000066773
   6   C   :    0.000048275    0.000318821    0.000180723
   7   H   :   -0.000028123    0.000016417    0.000039138
   8   H   :   -0.000064981    0.000007345   -0.000102218
   9   H   :   -0.000022275   -0.000000940    0.000092830
  10   H   :    0.000018735    0.000075119    0.000004574
  11   H   :   -0.000144896    0.000052685   -0.000011283
  12   H   :   -0.000032686   -0.000202012   -0.000230246
  13   H   :   -0.000040417   -0.000070781   -0.000019374
  14   H   :   -0.000035968   -0.000051237   -0.000020051
  15   H   :   -0.000059976    0.000225663   -0.000179008
  16   H   :   -0.000049080   -0.000016011   -0.000000035

Difference to translation invariance:
           :   -0.0000000000    0.0000000000   -0.0000000000

Difference to rotation invariance:
           :    0.0000390685    0.0000796400    0.0000177498

Norm of the Cartesian gradient     ...    0.0008365522
RMS gradient                       ...    0.0001207459
MAX gradient                       ...    0.0003188206

-------
TIMINGS
-------

Total SCF gradient time     ....        4.953 sec

Densities                   ....       0.001 sec  (  0.0%)
One electron gradient       ....       0.047 sec  (  0.9%)
RI-J Coulomb gradient       ....       0.244 sec  (  4.9%)
COSX gradient               ....       3.730 sec  ( 75.3%)
XC gradient                 ....       0.873 sec  ( 17.6%)

Maximum memory used throughout the entire SCFGRAD-calculation: 28.4 MB


           ************************************************************
           *        Program running with 6 parallel MPI-processes     *
           *              working on a common directory               *
           ************************************************************

------------------------------------------------------------------------------
                              ORCA PROPERTY CALCULATIONS
------------------------------------------------------------------------------

GBWName                                 ... orca.gbw
Number of atoms                         ...     16
Number of basis functions               ...    134
Max core memory                         ...   4096 MB

Electric properties:
Dipole moment                           ... YES
Quadrupole moment                       ...  NO
Static polarizability (Dipole/Dipole)   ...  NO
Static polarizability (Dipole/Quad.)    ...  NO
Static polarizability (Quad./Quad.)     ...  NO
Static polarizability (Velocity)        ...  NO
Static hyperpolarizability              ...  NO

Atomic electric properties:
Dipole moment                           ...  NO
Quadrupole moment                       ...  NO
Static polarizability                   ...  NO

Choice of electric origin               ... Center of mass
Position of electric origin             ...     0.001134     0.035470    -0.023847

General magnetic properties:
Magnetizability                         ...  NO

EPR properties:
g-Tensor (aka g-matrix)                 ...  NO
Zero-Field splitting spin-orbit         ...  NO
Zero-field splitting spin-spin          ...  NO
Hyperfine couplings                     ...  NO (   0 nuclei)
Quadrupole couplings                    ...  NO (   0 nuclei)
Contact density                         ...  NO (   0 nuclei)

NMR properties:
Chemical shifts                         ...  NO (   0 nuclei)
Spin-rotation constants                 ...  NO (   0 nuclei)
Spin-spin couplings                     ...  NO (   0 nuclei,    0 pairs)

Choice of magnetic origin               ... GIAO
Position of magnetic origin             ...     0.000000     0.000000     0.000000

Properties with geometric perturbations:
SCF Hessian                             ...  NO
IR spectrum                             ...  NO
VCD spectrum                            ...  NO
X-ray spectroscopy properties:
SCF XES/XAS/RIXS spectra                ...  NO

SCF SOC stabilization energy            ...  NO
Diagonal Born-Oppenheimer correction    ...  NO

-------------
DIPOLE MOMENT
-------------

Method             : SCF
Type of density    : Electron Density
Multiplicity       :   1
Irrep              :   0
Energy             :  -234.2256164936807181 Eh
Basis              : AO
                                X                 Y                 Z
Electronic contribution:     -2.676195573       0.806056185      -0.724201557
Nuclear contribution   :      2.664701563      -0.824281867       0.753218110
                        -----------------------------------------
Total Dipole Moment    :     -0.011494010      -0.018225682       0.029016553
                        -----------------------------------------
Magnitude (a.u.)       :      0.036142055
Magnitude (Debye)      :      0.091865802



--------------------
Rotational spectrum 
--------------------
 
Rotational constants in cm-1:             0.195587             0.052089             0.049955 
Rotational constants in MHz :          5863.564858          1561.595605          1497.617829 

Dipole components along the rotational axes: 
x,y,z [a.u.] :    -0.012662    -0.032848     0.008180 
x,y,z [Debye]:    -0.032185    -0.083493     0.020792 

 

Dipole moment calculation done in   0.0 sec 

Maximum memory used throughout the entire PROP-calculation: 6.6 MB

--------------------------------
SUGGESTED CITATIONS FOR THIS RUN
--------------------------------

Below you find a list of papers that are relevant to this ORCA run
We neither can nor want to force you to cite these papers, but we appreciate if you do
You receive ORCA, which is the product of decades of hard work by many enthusiastic individuals, for free
The only thing we kindly ask in return is that you cite our papers,
We deeply appreciate it, if you show your appreciation for ORCA by not just citing the generic ORCA reference.

Please note that relegating all ORCA citations to the supporting information does *not* help us.
SI sections are not indexed - citations you put there will not count into any citation statistics
But we need these citations in order to attract the funding resources that allow us to do what we are doing

Therefore, if you are a happy ORCA user, please consider citing a few of the papers listed below in the main body of your paper

In addition to the list printed below, the program has created the file orca.bibtex that contains the list in bibtex format
You can import this file easily into all common literature databanks and citation aid programs


List of essential papers. We consider these as the minimum necessary citations

  1. Neese, F.
     Software update: the ORCA program system, version 6.0
     WIRES Comput. Molec. Sci. 2025 15(1), e70019
     doi.org/10.1002/wcms.7019

List of papers to cite with high priority. The work reported in these papers was absolutely
necessary for this run to complete.
Our perspective: the developers of density functionals and basis sets usually get cited in chemistry papers
Good! But without the algorithms to do something with them, the functionals or basis sets would not do anything.
Hence, in our opinion, the algorithm design and method developments papers are equally worthy of getting cited

  1. Neese, F.
     An improvement of the resolution of the identity approximation for the formation of the Coulomb matrix
     J. Comp. Chem. 2003 24(14), 1740-1747
     doi.org/10.1002/jcc.10318
  2. Neese, F.; Wennmohs, F.; Hansen, A.; Becker, U.
     Efficient, approximate and parallel Hartree-Fock and hybrid DFT calculations. A 'chain-of-spheres' algorithm for the Hartree-Fock exchange
     Chem. Phys. 2009 356(1-3), 98-109
     doi.org/10.1016/j.chemphys.2008.10.036
  3. Grimme, S.; Antony, J.; Ehrlich, S.; Krieg, H.
     A consistent and accurate ab initio parametrization of density functional dispersion correction (DFT-D) for the 94 elements H-Pu
     J. Chem. Phys. 2010 132 , 154104
     doi.org/10.1063/1.3382344
  4. Grimme, S.; Ehrlich, S.; Goerigk, L.
     Effect of the damping function in dispersion corrected density functional theory
     J. Comput. Chem. 2011 32(7), 1456-1465
     doi.org/10.1002/jcc.21759
  5. Helmich-Paris, B.; de Souza, B.; Neese, F.; Izsák, R.
     An improved chain of spheres for exchange algorithm
     J. Chem. Phys. 2021 155(10), 104109
     doi.org/10.1063/5.0058766
  6. Neese, F.
     The SHARK Integral Generation and Digestion System
     J. Comp. Chem. 2022 44(3), 381
     doi.org/10.1002/jcc.26942

List of suggested additional citations. These are papers that are important in the 'surrounding' of 
of this run, or papers that preceded the highly important papers. If you like your results we are grateful for a citation.

  1. Izsak, R.; Neese, F.
     An overlap fitted chain of spheres exchange method
     J. Chem. Phys. 2011 135 , 144105
     doi.org/10.1063/1.3646921
  2. Izsak, R.; Hansen, A.; Neese, F.
     The resolution of identity and chain of spheres approximations for the LPNO-CCSD singles Fock term
     Molec. Phys. 2012 110 , 2413-2417
     doi.org/10.1080/00268976.2012.687466
  3. Neese, F.
     The ORCA program system
     WIRES Comput. Molec. Sci. 2012 2(1), 73-78
     doi.org/10.1002/wcms.81
  4. Izsak, R.; Neese, F.; Klopper, W.
     Robust fitting techniques in the chain of spheres approximation to the Fock exchange: The role of the complementary space
     J. Chem. Phys. 2013 139 , 
     doi.org/10.1063/1.4819264
  5. Neese, F.
     Software update: the ORCA program system, version 4.0
     WIRES Comput. Molec. Sci. 2018 8(1), 1-6
     doi.org/10.1002/wcms.1327
  6. Neese, F.; Wennmohs, F.; Becker, U.; Riplinger, C.
     The ORCA quantum chemistry program package
     J. Chem. Phys. 2020 152(22), 224108
     doi.org/10.1063/5.0004608
  7. Neese, F.
     Software update: The ORCA program system—Version 5.0
     WIRES Comput. Molec. Sci. 2022 12(1), e1606
     doi.org/10.1002/wcms.1606

List of optional additional citations

  1. Neese, F.
     Approximate second-order SCF convergence for spin unrestricted wavefunctions
     Chem. Phys. Lett. 2000 325(1-3), 93-98
     doi.org/10.1016/s0009-2614(00)00662-x

Timings for individual modules:

Sum of individual times          ...       16.646 sec (=   0.277 min)
Startup calculation              ...        1.348 sec (=   0.022 min)   8.1 %
SCF iterations                   ...        9.378 sec (=   0.156 min)  56.3 %
Property calculations            ...        0.476 sec (=   0.008 min)   2.9 %
SCF Gradient evaluation          ...        5.445 sec (=   0.091 min)  32.7 %
                             ****ORCA TERMINATED NORMALLY****
TOTAL RUN TIME: 0 days 0 hours 0 minutes 17 seconds 278 msec
