
                                 *****************
                                 * O   R   C   A *
                                 *****************

                                            #,                                       
                                            ###                                      
                                            ####                                     
                                            #####                                    
                                            ######                                   
                                           ########,                                 
                                     ,,################,,,,,                         
                               ,,#################################,,                 
                          ,,##########################################,,             
                       ,#########################################, ''#####,          
                    ,#############################################,,   '####,        
                  ,##################################################,,,,####,       
                ,###########''''           ''''###############################       
              ,#####''   ,,,,##########,,,,          '''####'''          '####       
            ,##' ,,,,###########################,,,                        '##       
           ' ,,###''''                  '''############,,,                           
         ,,##''                                '''############,,,,        ,,,,,,###''
      ,#''                                            '''#######################'''  
     '                                                          ''''####''''         
             ,#######,   #######,   ,#######,      ##                                
            ,#'     '#,  ##    ##  ,#'     '#,    #''#        ,####,    ,#,          
            ##       ##  ##   ,#'  ##            #'  '#       #'       ,# #          
            ##       ##  #######   ##           ,######,      #####,      #          
            '#,     ,#'  ##    ##  '#,     ,#' ,#      #,     #,   #      #          
             '#######'   ##     ##  '#######'  #'      '#     '####' #    #          



                #########################################################
                #                        -***-                          #
                #          Department of theory and spectroscopy        #
                #                                                       #
                #                      Frank Neese                      #
                #                                                       #
                #     Directorship, Architecture, Infrastructure        #
                #                    SHARK, DRIVERS                     #
                #        Core code/Algorithms in most modules           #
                #                                                       #
                #        Max Planck Institute fuer Kohlenforschung      #
                #                Kaiser Wilhelm Platz 1                 #
                #                 D-45470 Muelheim/Ruhr                 #
                #                      Germany                          #
                #                                                       #
                #                  All rights reserved                  #
                #                        -***-                          #
                #########################################################


                         Program Version 6.1.0  -  RELEASE   -
                                (GIT: $679e74b$)
                          ($2025-06-10 18:02:51 +0200$)


 With contributions from (in alphabetic order):
[Max-Planck-Institut fuer Kohlenforschung]                               
  Daniel Aravena         : Magnetic Suceptibility                        
  Michael Atanasov       : Ab Initio Ligand Field Theory (pilot matlab implementation)
  Alexander A. Auer      : GIAO ZORA, VPT2 properties, NMR spectrum      
  Ute Becker             : All parallelization in ORCA, NUMFREQ, NUMCALC 
  Giovanni Bistoni       : ED, misc. LED, open-shell LED, HFLD           
  Dmytro Bykov           : pre 5.0 version of the SCF Hessian            
  Marcos Casanova-Páez   : Triplet and SCS-CIS(D). UHF-(DLPNO)-IP/EA/STEOM-CCSD. UHF-CVS-IP/STEOM-CCSD   
  Vijay G. Chilkuri      : MRCI spin determinant printing, contributions to CSF-ICE 
  Pauline Colinet        : FMM embedding                                 
  Dipayan Datta          : RHF DLPNO-CCSD density                        
  Achintya Kumar Dutta   : EOM-CC, STEOM-CC                              
  Nicolas Foglia         : Exact transition moments, OPA infrastructure, MCD improvements    
  Dmitry Ganyushin       : Spin-Orbit,Spin-Spin,Magnetic field MRCI      
  Miquel Garcia-Rates    : C-PCM and meta-GGA Hessian, CCSD/C-PCM, Gaussian charge scheme 
  Tiago L. C. Gouveia    : GS-ROHF, GS-ROCIS                             
  Yang Guo               : DLPNO-NEVPT2, F12-NEVPT2, CIM, IAO-localization        
  Andreas Hansen         : Spin unrestricted coupled pair/coupled cluster methods 
  Ingolf Harden          : AUTO-CI MPn and infrastructure                
  Benjamin Helmich-Paris : MC-RPA, TRAH-(SCF,CASSCF), AVAS, COSX integrals, SCF dyn. polar., MC-PDFT, srDFT 
  Lee Huntington         : MR-EOM, pCC                                   
  Robert Izsak           : Overlap fitted RIJCOSX, COSX-SCS-MP3, EOM     
  Riya Kayal             : Wick's Theorem for AUTO-CI, AUTO-CI UHF-CCSDT 
  Emily Kempfer          : AUTO-CI RHF CISDT and CCSDT, approximate NEVPT4
  Christian Kollmar      : KDIIS, OOCD, Brueckner-CCSD(T), CCSD density, CASPT2, CASPT2-K, improved NEVPT2 
  Axel Koslowski         : Symmetry handling                             
  Simone Kossmann        : meta-GGA functionals, TD-DFT gradient, OOMP2, (MP2 Hessian; deprecated post 5.0) 
  Lucas Lang             : DCDCAS, Hyperfine gauge corrections, ICE-SOC+SSC
  Marvin Lechner         : AUTO-CI (C++ implementation), FIC-MRCC        
  Spencer Leger          : CASSCF response                               
  Dagmar Lenk            : GEPOL surface, SMD, ORCA-2-JSON               
  Dimitrios Liakos       : Extrapolation schemes; Compound Job, Property file
  Dimitrios Manganas     : Further ROCIS development; embedding schemes. LFT, Crystal Embedding 
  Dimitrios Pantazis     : SARC Basis sets                               
  Anastasios Papadopoulos: AUTO-CI, single reference methods and gradients 
  Taras Petrenko         : pre 6.0 DFT Hessian and TD-DFT gradient,  ECA, NRVS 
  Petra Pikulova         : Analytic Raman intensities                    
  Peter Pinski           : DLPNO-MP2, DLPNO-MP2 Gradient                 
  Shashank Vittal Rao    : ES-AILFT, MagRelax                            
  Christoph Reimann      : Effective Core Potentials                     
  Marius Retegan         : Local ZFS, SOC                                
  Christoph Riplinger    : Optimizer, TS searches, QM/MM, DLPNO-CCSD(T), (RO)-DLPNO pert. Triples 
  Michael Roemelt        : Original ROCIS implementation, recursive CI coupling coefficients
  Masaaki Saitow         : Open-shell DLPNO-CCSD energy and density      
  Barbara Sandhoefer     : DKH picture change effects                    
  Yorick L. A. Schmerwitz: GMF and freeze-and-release deltaSCF, NEB S-IDPP initial path                    
  Kantharuban Sivalingam : CASSCF convergence/infrastructure, NEVPT2, NEVPT3, NEVPT4(SD), FIC-MRCI and CEPA variants
  Bernardo de Souza      : ESD, SOC TD-DFT                               
  Georgi L. Stoychev     : AutoAux, RI-MP2 NMR, DLPNO-MP2 response, X2C  
  Van Anh Tran           : RI-MP2 g-tensors                              
  Willem Van den Heuvel  : Paramagnetic NMR                              
  Zikuan Wang            : NOTCH, Electric field optimization            
  Frank Wennmohs         : Technical directorship and infrastructure     
  Hang Xu                : AUTO-CI-Response properties                   
                                                                         
[FACCTs GmbH]                                                            
  Markus Bursch, Nicolas Foglia, Miquel Garcia-Rates, Ingolf Harden, Hagen Neugebauer, Anastasios Papadopoulos, 
  Christoph Riplinger, Bernardo de Souza, Georgi L. Stoychev                                                    
                                                                 
  APM, various basis sets, CI-OPT, improved COSX, DLPNO-Multilevel,           
  DOCKER, DRACO, updates on ESD, Fragmentator, GOAT, IRC, LR-CPCM, L-BFGS, MBIS, meta-GGA TD-DFT gradient, ML-optimized integration grids, 
  MM, NACMEs, nearIR, NEB, NEB-TS, NL-DFT gradient (VV10), 2- and 3-layer-ONIOM, interface openCOSMO-RS, QMMM,   
  Crystal-QMMM, RESP, rigid body optimization, SF, symmetry and pop. for TD-DFT, various functionals, SOLVATOR                                   
                                                                         
[Other institutions]                                                     
  V. Asgeirsson          : NEB                                           
  Christoph Bannwarth    : sTDA-DFT, sTD-DFT, PBEh-3c, B97-3c, D3        
  Giovanni Bistoni       : ETS/NOCV, ADLD/ADEX, COVALED                  
  Martin Brehm           : Molecular dynamics                            
  Ronald Cardenas        : ETS/NOCV                                      
  Martina Colucci        : COVALED                                       
  Sebastian Ehlert       : rSCAN, r2SCAN, r2SCAN-3c, D4, dhf basis sets  
  Marvin Friede          : D4 for Fr, Ra, Ac-Lr                          
  Lars Goerigk           : TD-DFT with DH, B97 family of functionals     
  Stefan Grimme          : VdW corrections, initial TS optimization, DFT functionals, gCP, sTDA/sTD-DF 
  Waldemar Hujo          : DFT-NL                                        
  H. Jonsson             : NEB                                           
  Holger Kruse           : gCP                                           
  Marcel Mueller         : wB97X-3c, vDZP basis set                      
  Hagen Neugebauer       : wr2SCAN, Native XTB                           
  Gianluca Regni         : ADLD/ADEX                                     
  Tobias Risthaus        : pre 6.0 range-separated hybrid DFT and stability analysis
  Lukas Wittmann         : regularized MP2, r2SCAN double-hybrids, wr2SCAN        
                                                                         
We gratefully acknowledge several colleagues who have allowed us to      
interface, adapt or use parts of their codes:                            
  Ed Valeev, F. Pavosevic, A. Kumar             : LibInt (2-el integral package), F12 methods 
  Garnet Chan, S. Sharma, J. Yang, R. Olivares  : DMRG                   
  Ulf Ekstrom                                   : XCFun DFT Library      
  Mihaly Kallay                                 : mrcc  (arbitrary order and MRCC methods)
  Frank Weinhold                                : gennbo (NPA and NBO analysis)           
  Simon Mueller                                 : openCOSMO-RS                            
  Christopher J. Cramer and Donald G. Truhlar   : smd solvation model                     
  S Lehtola, MJT Oliveira, MAL Marques          : LibXC Library                           
  Liviu Ungur et al                             : ANISO software                          


 Your calculation uses the libint2 library for the computation of 2-el integrals
 For citations please refer to: http://libint.valeyev.net

 Your ORCA version has been built with support for libXC version: 7.0.0
 For citations please refer to: https://libxc.gitlab.io

 This ORCA versions uses:
   CBLAS   interface :  Fast vector & matrix operations
   LAPACKE interface :  Fast linear algebra routines
   SCALAPACK package :  Parallel linear algebra routines
   Shared memory     :  Shared parallel matrices
   BLAS/LAPACK       :  OpenBLAS 0.3.29  USE64BITINT DYNAMIC_ARCH NO_AFFINITY Zen SINGLE_THREADED
        Core in use  :  Zen
   Copyright (c) 2011-2014, The OpenBLAS Project


  ***********************************
  * Starting time: Wed Sep 10 13:35:47 2025
  * Host name:     wyk-Server
  * Process ID:    2294501
  * Working dir.:  /home/wyk/Documents/code/openQDC/MGMR/singlepointcalc/60/prod
  ***********************************

Your calculation utilizes the atom-pairwise dispersion correction
with the Becke-Johnson damping scheme (D3BJ)


Warning: RI is on but no J-basis has been assigned. Assigning Def2/J (nothing to worry about!)
================================================================================

----- Orbital basis set information -----
Your calculation utilizes the basis: def2-SVP
   F. Weigend and R. Ahlrichs, Phys. Chem. Chem. Phys. 7, 3297 (2005).

----- AuxJ basis set information -----
Your calculation utilizes the auxiliary basis: def2/J
   H-Rn: F. Weigend, Phys. Chem. Chem. Phys. 8, 1057 (2006).
   Fr-Lr: K. Eichkorn, F. Weigend, O. Treutler, R. Ahlrichs; Theor. Chem. Acc. 97, 119 (1997).

================================================================================
                                        WARNINGS
                       Please study these warnings very carefully!
================================================================================


================================================================================
                                       INPUT FILE
================================================================================
NAME = orca.inp
|  1> ! B3LYP def2-SVP d3 EnGrad 
|  2> %pal nprocs 6 end 
|  3> *xyz 0 1 
|  4> C   1.85153800992587 -0.11294324606001 -0.04861725313877
|  5> C   0.50180380899018 0.51807560988626 0.0239382381545
|  6> N   -0.61203066897267 -0.20250174521172 -0.11081254330925
|  7> C   -1.91847227920585 0.09546767523938 -0.09121739563283
|  8> H   0.37601098343355 1.59053557110295 0.18715412047506
|  9> H   2.47403193483888 0.29020517467256 -0.8718036088059
| 10> H   2.4423762159401 0.02204601037983 0.87880057172892
| 11> H   1.77047978437215 -1.20214340273984 -0.21644826356467
| 12> H   -2.63113547845191 -0.71200731667585 -0.23040664885155
| 13> H   -2.22548700556908 1.12863196739784 0.06137802396072
| 14> H   -0.42661330530124 -1.1957572979914 -0.26133424101621
| 15> *
| 16> 
| 17>                          ****END OF INPUT****
================================================================================

                     *******************************
                     * Energy+Gradient Calculation *
                     *******************************

---------------------------------
CARTESIAN COORDINATES (ANGSTROEM)
---------------------------------
  C      1.851538   -0.112943   -0.048617
  C      0.501804    0.518076    0.023938
  N     -0.612031   -0.202502   -0.110813
  C     -1.918472    0.095468   -0.091217
  H      0.376011    1.590536    0.187154
  H      2.474032    0.290205   -0.871804
  H      2.442376    0.022046    0.878801
  H      1.770480   -1.202143   -0.216448
  H     -2.631135   -0.712007   -0.230407
  H     -2.225487    1.128632    0.061378
  H     -0.426613   -1.195757   -0.261334

----------------------------
CARTESIAN COORDINATES (A.U.)
----------------------------
  NO LB      ZA    FRAG     MASS         X           Y           Z
   0 C     6.0000    0    12.011    3.498900   -0.213432   -0.091873
   1 C     6.0000    0    12.011    0.948272    0.979021    0.045237
   2 N     7.0000    0    14.007   -1.156570   -0.382673   -0.209405
   3 C     6.0000    0    12.011   -3.625387    0.180408   -0.172376
   4 H     1.0000    0     1.008    0.710558    3.005677    0.353670
   5 H     1.0000    0     1.008    4.675243    0.548408   -1.647470
   6 H     1.0000    0     1.008    4.615422    0.041661    1.660692
   7 H     1.0000    0     1.008    3.345722   -2.271722   -0.409028
   8 H     1.0000    0     1.008   -4.972125   -1.345499   -0.435405
   9 H     1.0000    0     1.008   -4.205561    2.132805    0.115988
  10 H     1.0000    0     1.008   -0.806182   -2.259654   -0.493850

--------------------------------
INTERNAL COORDINATES (ANGSTROEM)
--------------------------------
 C      0   0   0     0.000000000000     0.00000000     0.00000000
 C      1   0   0     1.491720989010     0.00000000     0.00000000
 N      2   1   0     1.333422941937   121.48670401     0.00000000
 C      3   2   1     1.340134107575   133.84324927   180.09295822
 H      2   1   3     1.092077665561   121.79672836   180.15101093
 H      1   2   3     1.107999599210   112.98957286   119.52372540
 H      1   2   3     1.107887948722   112.97209169   240.04176203
 H      1   2   3     1.105031522311   110.97552505   359.75156408
 H      4   3   2     1.085945830297   118.20059304   180.05108645
 H      4   3   2     1.088564127131   119.21070648     0.10026988
 H      3   2   1     1.021563983977   112.87354156     0.09541966

---------------------------
INTERNAL COORDINATES (A.U.)
---------------------------
 C      0   0   0     0.000000000000     0.00000000     0.00000000
 C      1   0   0     2.818944137450     0.00000000     0.00000000
 N      2   1   0     2.519804180948   121.48670401     0.00000000
 C      3   2   1     2.532486446043   133.84324927   180.09295822
 H      2   1   3     2.063727704881   121.79672836   180.15101093
 H      1   2   3     2.093815799001   112.98957286   119.52372540
 H      1   2   3     2.093604810156   112.97209169   240.04176203
 H      1   2   3     2.088206946519   110.97552505   359.75156408
 H      4   3   2     2.052140215535   118.20059304   180.05108645
 H      4   3   2     2.057088079488   119.21070648     0.10026988
 H      3   2   1     1.930476157994   112.87354156     0.09541966

---------------------
BASIS SET INFORMATION
---------------------
There are 3 groups of distinct atoms

 Group   1 Type C   : 7s4p1d contracted to 3s2p1d pattern {511/31/1}
 Group   2 Type N   : 7s4p1d contracted to 3s2p1d pattern {511/31/1}
 Group   3 Type H   : 4s1p contracted to 2s1p pattern {31/1}

Atom   0C    basis set group =>   1
Atom   1C    basis set group =>   1
Atom   2N    basis set group =>   2
Atom   3C    basis set group =>   1
Atom   4H    basis set group =>   3
Atom   5H    basis set group =>   3
Atom   6H    basis set group =>   3
Atom   7H    basis set group =>   3
Atom   8H    basis set group =>   3
Atom   9H    basis set group =>   3
Atom  10H    basis set group =>   3
---------------------------------
AUXILIARY/J BASIS SET INFORMATION
---------------------------------
There are 3 groups of distinct atoms

 Group   1 Type C   : 12s5p4d2f1g contracted to 6s4p3d1f1g pattern {711111/2111/211/2/1}
 Group   2 Type N   : 12s5p4d2f1g contracted to 6s4p3d1f1g pattern {711111/2111/211/2/1}
 Group   3 Type H   : 5s2p1d contracted to 3s1p1d pattern {311/2/1}

Atom   0C    basis set group =>   1
Atom   1C    basis set group =>   1
Atom   2N    basis set group =>   2
Atom   3C    basis set group =>   1
Atom   4H    basis set group =>   3
Atom   5H    basis set group =>   3
Atom   6H    basis set group =>   3
Atom   7H    basis set group =>   3
Atom   8H    basis set group =>   3
Atom   9H    basis set group =>   3
Atom  10H    basis set group =>   3


           ************************************************************
           *        Program running with 6 parallel MPI-processes     *
           *              working on a common directory               *
           ************************************************************
------------------------------------------------------------------------------
                             ORCA STARTUP CALCULATIONS
                           -- RI-GTO INTEGRALS CHOSEN --
------------------------------------------------------------------------------
------------------------------------------------------------------------------
                   ___                                                        
                  /   \      - P O W E R E D   B Y -                         
                 /     \                                                     
                 |  |  |   _    _      __       _____    __    __             
                 |  |  |  | |  | |    /  \     |  _  \  |  |  /  |          
                  \  \/   | |  | |   /    \    | | | |  |  | /  /          
                 / \  \   | |__| |  /  /\  \   | |_| |  |  |/  /          
                |  |  |   |  __  | /  /__\  \  |    /   |      \           
                |  |  |   | |  | | |   __   |  |    \   |  |\   \          
                \     /   | |  | | |  |  |  |  | |\  \  |  | \   \       
                 \___/    |_|  |_| |__|  |__|  |_| \__\ |__|  \__/        
                                                                              
                      - O R C A' S   B I G   F R I E N D -                    
                                      &                                       
                       - I N T E G R A L  F E E D E R -                       
                                                                              
 v1 FN, 2020, v2 2021, v3 2022-2024                                           
------------------------------------------------------------------------------


----------------------
SHARK INTEGRAL PACKAGE
----------------------

Number of atoms                             ...     11
Number of basis functions                   ...     91
Number of shells                            ...     45
Maximum angular momentum                    ...      2
Integral batch strategy                     ... SHARK/LIBINT Hybrid
RI-J (if used) integral strategy            ... SPLIT-RIJ (Revised 2003 algorithm where possible)
Printlevel                                  ...      1
Contraction scheme used                     ... SEGMENTED contraction
Prescreening option                         ... SCHWARTZ
   Thresh                                   ... 2.500e-11
   Tcut                                     ... 2.500e-12
   Tpresel                                  ... 2.500e-12 
Coulomb Range Separation                    ... NOT USED
Exchange Range Separation                   ... NOT USED
Multipole approximations                    ... NOT USED
Finite Nucleus Model                        ... NOT USED
CABS basis                                  ... NOT available
Auxiliary Coulomb fitting basis             ... AVAILABLE
   # of basis functions in Aux-J            ...    273
   # of shells in Aux-J                     ...     95
   Maximum angular momentum in Aux-J        ...      4
Auxiliary J/K fitting basis                 ... NOT available
Auxiliary Correlation fitting basis         ... NOT available
Auxiliary 'external' fitting basis          ... NOT available

Checking pre-screening integrals            ... done (  0.0 sec) Dimension = 45
   => SHARK Basis and OBASIS are compatible. Storing Pre-screening
Shell pair information
Shell pair cut-off parameter TPreSel        ...   2.5e-12
Total number of shell pairs                 ...      1035
Shell pairs after pre-screening             ...      1016
Total number of primitive shell pairs       ...      3559
Primitive shell pairs kept                  ...      2838
          la=0 lb=0:    344 shell pairs
          la=1 lb=0:    385 shell pairs
          la=1 lb=1:    115 shell pairs
          la=2 lb=0:    102 shell pairs
          la=2 lb=1:     60 shell pairs
          la=2 lb=2:     10 shell pairs

Checking whether 4 symmetric matrices of dimension 91 fit in memory
:Max Core in MB      =   4096.00
 MB in use           =      4.56
 MB left             =   4091.44
 MB needed           =      0.13
 Data fit in memory  = YES
Calculating RI/J V-Matrix + Cholesky decomp.... done (  0.0 sec)
Calculating Nuclear repulsion               ... done (  0.0 sec) ENN=    118.923638811703 Eh

Diagonalization of the overlap matrix:
Smallest eigenvalue                        ... 3.585e-03
Time for diagonalization                   ...    0.001 sec
Threshold for overlap eigenvalues          ... 1.000e-07
Number of eigenvalues below threshold      ... 0
Time for construction of square roots      ...    0.001 sec
Total time needed                          ...    0.003 sec

-------------------
DFT GRID GENERATION
-------------------

General Integration Accuracy     IntAcc      ... 4.388
Radial Grid Type                 RadialGrid  ... OptM3 with GC (2021)
Angular Grid (max. ang.)         AngularGrid ... 4 (Lebedev-302)
Angular grid pruning method      GridPruning ... 4 (adaptive)
Weight generation scheme         WeightScheme... mBecke (2022)
Basis function cutoff            BFCut       ... 1.0000e-11
Integration weight cutoff        WCut        ... 1.0000e-14
Partially contracted basis set               ... off
Rotationally invariant grid construction     ... off
Angular grids for H and He will be reduced by one unit

Total number of grid points                  ...    46985
Total number of batches                      ...      740
Average number of points per batch           ...       63
Average number of grid points per atom       ...     4271

--------------------
COSX GRID GENERATION
--------------------

GRIDX 1
-------
General Integration Accuracy     IntAcc      ... 3.816
Radial Grid Type                 RadialGrid  ... OptM3 with GC (2021)
Angular Grid (max. ang.)         AngularGrid ... 1 (Lebedev-50)
Angular grid pruning method      GridPruning ... 4 (adaptive)
Weight generation scheme         WeightScheme... mBecke (2022)
Basis function cutoff            BFCut       ... 1.0000e-11
Integration weight cutoff        WCut        ... 1.0000e-14
Partially contracted basis set               ... on
Rotationally invariant grid construction     ... off
Angular grids for H and He will be reduced by one unit

Total number of grid points                  ...     6079
Total number of batches                      ...       55
Average number of points per batch           ...      110
Average number of grid points per atom       ...      553
UseSFitting                                  ... on

GRIDX 2
-------
General Integration Accuracy     IntAcc      ... 4.020
Radial Grid Type                 RadialGrid  ... OptM3 with GC (2021)
Angular Grid (max. ang.)         AngularGrid ... 2 (Lebedev-110)
Angular grid pruning method      GridPruning ... 4 (adaptive)
Weight generation scheme         WeightScheme... mBecke (2022)
Basis function cutoff            BFCut       ... 1.0000e-11
Integration weight cutoff        WCut        ... 1.0000e-14
Partially contracted basis set               ... on
Rotationally invariant grid construction     ... off
Angular grids for H and He will be reduced by one unit

Total number of grid points                  ...    12814
Total number of batches                      ...      106
Average number of points per batch           ...      120
Average number of grid points per atom       ...     1165
UseSFitting                                  ... on

GRIDX 3
-------
General Integration Accuracy     IntAcc      ... 4.338
Radial Grid Type                 RadialGrid  ... OptM3 with GC (2021)
Angular Grid (max. ang.)         AngularGrid ... 3 (Lebedev-194)
Angular grid pruning method      GridPruning ... 4 (adaptive)
Weight generation scheme         WeightScheme... mBecke (2022)
Basis function cutoff            BFCut       ... 1.0000e-11
Integration weight cutoff        WCut        ... 1.0000e-14
Partially contracted basis set               ... on
Rotationally invariant grid construction     ... off
Angular grids for H and He will be reduced by one unit

Total number of grid points                  ...    28049
Total number of batches                      ...      225
Average number of points per batch           ...      124
Average number of grid points per atom       ...     2550
UseSFitting                                  ... on
Grids setup in   0.5 sec
Initializing property integral containers    ... done (  0.0 sec)

SHARK setup successfully completed in   0.6 seconds

Maximum memory used throughout the entire STARTUP-calculation: 13.2 MB


           ************************************************************
           *        Program running with 6 parallel MPI-processes     *
           *              working on a common directory               *
           ************************************************************
-------------------------------------------------------------------------------
                                 ORCA GUESS
                   Start orbitals & Density for SCF / CASSCF
-------------------------------------------------------------------------------

------------
SCF SETTINGS
------------
Hamiltonian:
 Density Functional     Method          .... DFT(GTOs)
 Exchange Functional    Exchange        .... B88
   X-Alpha parameter    XAlpha          ....  0.666667
   Becke's b parameter  XBeta           ....  0.004200
 Correlation Functional Correlation     .... LYP
 LDA part of GGA corr.  LDAOpt          .... VWN-5
 Gradients option       PostSCFGGA      .... off
 Hybrid DFT is turned on
   Fraction HF Exchange ScalHFX         ....  0.200000
   Scaling of DF-GGA-X  ScalDFX         ....  0.720000
   Scaling of DF-GGA-C  ScalDFC         ....  0.810000
   Scaling of DF-LDA-C  ScalLDAC        ....  1.000000
   Perturbative correction              ....  0.000000
   NL short-range parameter             ....  4.800000
 RI-approximation to the Coulomb term is turned on
   Number of AuxJ basis functions       .... 273
   RIJ-COSX (HFX calculated with COS-X)).... on


General Settings:
 Integral files         IntName         .... orca
 Hartree-Fock type      HFTyp           .... RHF
 Total Charge           Charge          ....    0
 Multiplicity           Mult            ....    1
 Number of Electrons    NEL             ....   32
 Basis Dimension        Dim             ....   91
 Nuclear Repulsion      ENuc            ....    118.9236388117 Eh

Convergence Acceleration:
 AO-DIIS                CNVDIIS         .... on
   Start iteration      DIISMaxIt       ....    12
   Startup error        DIISStart       ....  0.200000
   # of expansion vecs  DIISMaxEq       ....     5
   Bias factor          DIISBfac        ....   1.050
   Max. coefficient     DIISMaxC        ....  10.000
 MO-DIIS                CNVKDIIS        .... off
 Trust-Rad. Augm. Hess. CNVTRAH         .... auto
   Auto Start mean grad. ratio tolernc. ....  1.125000
   Auto Start start iteration           ....    50
   Auto Start num. interpolation iter.  ....    10
   Max. Number of Micro iterations      ....    24
   Max. Number of Macro iterations      .... Maxiter - #DIIS iter
   Number of Davidson start vectors     ....     2
   Converg. threshold    (grad. norm)   ....   1.000e-05
   Grad. Scal. Fac. for Micro threshold ....   0.100
   Minimum threshold for Micro iter.    ....   1.000e-02
   NR start threshold (gradient norm)   ....   1.000e-04
   Initial trust radius                 ....   0.400
   Minimum AH scaling param. (alpha)    ....   1.000
   Maximum AH scaling param. (alpha)    .... 1000.000
   Quad. conv. algorithm                .... NR
   White noise on init. David. guess    .... on
   Maximum white noise                  ....   0.010
   Pseudo random numbers                .... off
   Inactive MOs                         .... canonical
   Orbital update algorithm             .... Taylor
   Preconditioner                       .... Diag
   Full preconditioner red. dimension   ....   250
 SOSCF                 CNVSOSCF           .... on
   Start iteration     SOSCFMaxIt         ....   150
   Startup grad/error  SOSCFStart         ....  0.003300
   Hessian update      SOSCFHessUp        .... L-BFGS
   Autom. constraints  SOSCFAutoConstrain .... off
 Level Shifting         CNVShift        .... on
   Level shift para.    LevelShift      ....    0.2500
   Turn off err/grad.   ShiftErr        ....    0.0010
 Zerner damping         CNVZerner       .... off
 Static damping         CNVDamp         .... on
   Fraction old density DampFac         ....    0.7000
   Max. Damping (<1)    DampMax         ....    0.9800
   Min. Damping (>=0)   DampMin         ....    0.0000
   Turn off err/grad.   DampErr         ....    0.1000

SCF Procedure:
 Maximum # iterations   MaxIter         ....   125
 SCF integral mode      SCFMode         .... Direct
   Integral package                     .... SHARK and LIBINT hybrid scheme
 Reset frequency        DirectResetFreq ....    20
 Integral Threshold     Thresh          ....  2.500e-11 Eh
 Primitive CutOff       TCut            ....  2.500e-12 Eh

Convergence Tolerance:
 Convergence Check Mode ConvCheckMode   .... Total+1el-Energy
 Convergence forced     ConvForced      .... 0
 Energy Change          TolE            ....  1.000e-08 Eh
 1-El. energy change                    ....  1.000e-05 Eh
 Orbital Gradient       TolG            ....  1.000e-05
 Orbital Rotation angle TolX            ....  1.000e-05
 DIIS Error             TolErr          ....  5.000e-07

------------------------------
INITIAL GUESS: MODEL POTENTIAL
------------------------------
Loading Hartree-Fock densities                     ... done
Calculating cut-offs                               ... done
Initializing the effective Hamiltonian             ... done
Setting up the integral package (SHARK)            ... done
Starting the Coulomb interaction                   ... done (   0.0 sec)
Making the grid                                    ... done (   0.1 sec)
Mapping shells                                     ... done
Starting the XC term evaluation                    ... done (   0.0 sec)
  promolecular density results
     # of electrons  =     31.997184652
     EX              =    -24.058549949
     EC              =     -1.028912953
     EX+EC           =    -25.087462902
Transforming the Hamiltonian                       ... done (   0.0 sec)
Diagonalizing the Hamiltonian                      ... done (   0.0 sec)
Back transforming the eigenvectors                 ... done (   0.0 sec)
Now organizing SCF variables                       ... done
                      ------------------
                      INITIAL GUESS DONE (   0.1 sec)
                      ------------------
             **** ENERGY FILE WAS UPDATED (orca.en.tmp) ****
Finished Guess after   0.2 sec
Maximum memory used throughout the entire GUESS-calculation: 6.9 MB


           ************************************************************
           *        Program running with 6 parallel MPI-processes     *
           *              working on a common directory               *
           ************************************************************

-------------------------------------------------------------------------------------------
                                      ORCA LEAN-SCF
                              memory conserving SCF solver
-------------------------------------------------------------------------------------------

----------------------------------------D-I-I-S--------------------------------------------
Iteration    Energy (Eh)           Delta-E    RMSDP     MaxDP     DIISErr   Damp  Time(sec)
-------------------------------------------------------------------------------------------
               ***  Starting incremental Fock matrix formation  ***
    1    -172.8388943414608434     0.00e+00  9.70e-03  7.47e-02  1.66e-01  0.700   0.4
    2    -172.8974205939459807    -5.85e-02  7.04e-03  4.74e-02  8.86e-02  0.700   0.3
                               ***Turning on AO-DIIS***
    3    -172.9227456476597240    -2.53e-02  2.90e-03  1.86e-02  3.49e-02  0.700   0.3
    4    -172.9370955166209001    -1.43e-02  4.95e-03  2.83e-02  1.88e-02  0.000   0.3
    5    -172.9675894704791972    -3.05e-02  7.87e-04  3.71e-03  5.29e-03  0.000   0.2
                              *** Initializing SOSCF ***
---------------------------------------S-O-S-C-F--------------------------------------
Iteration    Energy (Eh)           Delta-E    RMSDP     MaxDP     MaxGrad    Time(sec)
--------------------------------------------------------------------------------------
    6    -172.9677639271576481    -1.74e-04  3.04e-04  1.46e-03  1.91e-03     0.2
               *** Restarting incremental Fock matrix formation ***
    7    -172.9678200176377345    -5.61e-05  2.50e-04  1.85e-03  2.69e-04     0.4
    8    -172.9678179617962996     2.06e-06  1.39e-04  1.55e-03  6.58e-04     0.3
    9    -172.9678217481696265    -3.79e-06  1.19e-04  1.17e-03  2.75e-04     0.3
   10    -172.9678211187054444     6.29e-07  6.36e-05  6.38e-04  2.45e-04     0.3
   11    -172.9678223092575422    -1.19e-06  1.98e-05  1.48e-04  4.11e-05     0.3
   12    -172.9678222953348268     1.39e-08  1.15e-05  7.68e-05  4.66e-05     0.3
   13    -172.9678223290171672    -3.37e-08  6.24e-07  4.06e-06  9.56e-07     0.3
                  *** Gradient check signals convergence ***

               *****************************************************
               *                     SUCCESS                       *
               *           SCF CONVERGED AFTER  13 CYCLES          *
               *****************************************************

Recomputing exchange energy using gridx3       ... done (    0.383 sec)
Old exchange energy                            :     -4.902243339 Eh
New exchange energy                            :     -4.902251064 Eh
Exchange energy change after final integration :     -0.000007725 Eh
Total energy after final integration           :   -172.967830053 Eh
             **** ENERGY FILE WAS UPDATED (orca.en.tmp) ****

----------------
TOTAL SCF ENERGY
----------------

Total Energy       :       -172.96783005332389 Eh           -4706.69394 eV

Components:
Nuclear Repulsion  :        118.92363881170321 Eh            3236.07673 eV
Electronic Energy  :       -291.89146114041318 Eh           -7942.77046 eV
One Electron Energy:       -467.03936002913417 Eh          -12708.78709 eV
Two Electron Energy:        175.14789888872102 Eh            4766.01663 eV

Virial components:
Potential Energy   :       -343.95875759797741 Eh           -9359.59363 eV
Kinetic Energy     :        170.99092754465354 Eh            4652.89969 eV
Virial Ratio       :          2.01156144678000

DFT components:
N(Alpha)           :       16.000010494102 electrons
N(Beta)            :       16.000010494102 electrons
N(Total)           :       32.000020988204 electrons
E(X)               :      -19.477809907853 Eh       
E(C)               :       -1.223607534007 Eh       
E(XC)              :      -20.701417441859 Eh       

---------------
SCF CONVERGENCE
---------------

  Last Energy change         ...    3.3682e-08  Tolerance :   1.0000e-08
  Last MAX-Density change    ...    4.0620e-06  Tolerance :   1.0000e-07
  Last RMS-Density change    ...    6.2406e-07  Tolerance :   5.0000e-09
  Last DIIS Error            ...    1.9101e-03  Tolerance :   5.0000e-07
  Last Orbital Gradient      ...    9.5614e-07  Tolerance :   1.0000e-05
  Last Orbital Rotation      ...    3.2796e-06  Tolerance :   1.0000e-05


----------------
ORBITAL ENERGIES
----------------

  NO   OCC          E(Eh)            E(eV) 
   0   2.0000     -14.401577      -391.8868 
   1   2.0000     -10.187659      -277.2203 
   2   2.0000     -10.184866      -277.1443 
   3   2.0000     -10.172969      -276.8206 
   4   2.0000      -0.955639       -26.0042 
   5   2.0000      -0.742956       -20.2168 
   6   2.0000      -0.654987       -17.8231 
   7   2.0000      -0.606370       -16.5002 
   8   2.0000      -0.490208       -13.3392 
   9   2.0000      -0.475604       -12.9418 
  10   2.0000      -0.416398       -11.3308 
  11   2.0000      -0.393425       -10.7056 
  12   2.0000      -0.382777       -10.4159 
  13   2.0000      -0.368272       -10.0212 
  14   2.0000      -0.366332        -9.9684 
  15   2.0000      -0.145411        -3.9568 
  16   0.0000       0.012522         0.3407 
  17   0.0000       0.044872         1.2210 
  18   0.0000       0.084611         2.3024 
  19   0.0000       0.097698         2.6585 
  20   0.0000       0.140153         3.8138 
  21   0.0000       0.140352         3.8192 
  22   0.0000       0.143988         3.9181 
  23   0.0000       0.161246         4.3877 
  24   0.0000       0.235920         6.4197 
  25   0.0000       0.285018         7.7557 
  26   0.0000       0.332812         9.0563 
*Only the first 10 virtual orbitals were printed.

                    ********************************
                    * MULLIKEN POPULATION ANALYSIS *
                    ********************************

-----------------------
MULLIKEN ATOMIC CHARGES
-----------------------
   0 C :    0.048965
   1 C :   -0.165486
   2 N :    0.070937
   3 C :   -0.159311
   4 H :    0.002394
   5 H :    0.021690
   6 H :    0.021647
   7 H :   -0.010209
   8 H :    0.020161
   9 H :    0.023553
  10 H :    0.125658
Sum of atomic charges:    0.0000000

--------------------------------
MULLIKEN REDUCED ORBITAL CHARGES
--------------------------------
  0 C s       :     2.963078  s :     2.963078
      pz      :     1.014399  p :     2.956854
      px      :     0.978287
      py      :     0.964167
      dz2     :     0.005012  d :     0.031103
      dxz     :     0.012485
      dyz     :     0.002123
      dx2y2   :     0.007260
      dxy     :     0.004222

  1 C s       :     3.132398  s :     3.132398
      pz      :     1.220666  p :     2.988244
      px      :     0.846769
      py      :     0.920809
      dz2     :     0.003851  d :     0.044844
      dxz     :     0.008853
      dyz     :     0.003010
      dx2y2   :     0.013962
      dxy     :     0.015167

  2 N s       :     3.322277  s :     3.322277
      pz      :     1.372084  p :     3.571184
      px      :     1.090720
      py      :     1.108380
      dz2     :     0.001933  d :     0.035602
      dxz     :     0.015533
      dyz     :     0.001031
      dx2y2   :     0.009906
      dxy     :     0.007198

  3 C s       :     3.082585  s :     3.082585
      pz      :     1.305443  p :     3.041465
      px      :     0.786564
      py      :     0.949458
      dz2     :     0.003190  d :     0.035261
      dxz     :     0.006981
      dyz     :     0.000685
      dx2y2   :     0.013219
      dxy     :     0.011187

  4 H s       :     0.974721  s :     0.974721
      pz      :     0.007019  p :     0.022885
      px      :     0.002104
      py      :     0.013762

  5 H s       :     0.955502  s :     0.955502
      pz      :     0.010062  p :     0.022808
      px      :     0.006856
      py      :     0.005890

  6 H s       :     0.955537  s :     0.955537
      pz      :     0.011338  p :     0.022815
      px      :     0.006572
      py      :     0.004905

  7 H s       :     0.986862  s :     0.986862
      pz      :     0.005472  p :     0.023347
      px      :     0.004405
      py      :     0.013469

  8 H s       :     0.955120  s :     0.955120
      pz      :     0.008298  p :     0.024720
      px      :     0.007532
      py      :     0.008889

  9 H s       :     0.952508  s :     0.952508
      pz      :     0.007411  p :     0.023938
      px      :     0.003469
      py      :     0.013058

 10 H s       :     0.830724  s :     0.830724
      pz      :     0.009625  p :     0.043618
      px      :     0.009186
      py      :     0.024807



                     *******************************
                     * LOEWDIN POPULATION ANALYSIS *
                     *******************************

----------------------
LOEWDIN ATOMIC CHARGES
----------------------
   0 C :   -0.065401
   1 C :   -0.133184
   2 N :    0.192423
   3 C :   -0.191671
   4 H :    0.011262
   5 H :    0.024791
   6 H :    0.024889
   7 H :    0.021561
   8 H :    0.006390
   9 H :    0.008158
  10 H :    0.100783

-------------------------------
LOEWDIN REDUCED ORBITAL CHARGES
-------------------------------
  0 C s       :     2.838149  s :     2.838149
      pz      :     1.065038  p :     3.146759
      px      :     1.036999
      py      :     1.044722
      dz2     :     0.012674  d :     0.080493
      dxz     :     0.031745
      dyz     :     0.005027
      dx2y2   :     0.019445
      dxy     :     0.011602

  1 C s       :     2.856120  s :     2.856120
      pz      :     1.208339  p :     3.170703
      px      :     0.947146
      py      :     1.015218
      dz2     :     0.008222  d :     0.106361
      dxz     :     0.017254
      dyz     :     0.005838
      dx2y2   :     0.035851
      dxy     :     0.039195

  2 N s       :     3.032519  s :     3.032519
      pz      :     1.299796  p :     3.692063
      px      :     1.210968
      py      :     1.181298
      dz2     :     0.003631  d :     0.082995
      dxz     :     0.030889
      dyz     :     0.002361
      dx2y2   :     0.026923
      dxy     :     0.019192

  3 C s       :     2.870175  s :     2.870175
      pz      :     1.284932  p :     3.235204
      px      :     0.901091
      py      :     1.049182
      dz2     :     0.007161  d :     0.086292
      dxz     :     0.014303
      dyz     :     0.001386
      dx2y2   :     0.034573
      dxy     :     0.028869

  4 H s       :     0.915765  s :     0.915765
      pz      :     0.023823  p :     0.072973
      px      :     0.008695
      py      :     0.040455

  5 H s       :     0.911946  s :     0.911946
      pz      :     0.027807  p :     0.063263
      px      :     0.020471
      py      :     0.014985

  6 H s       :     0.911841  s :     0.911841
      pz      :     0.031821  p :     0.063270
      px      :     0.019588
      py      :     0.011860

  7 H s       :     0.915968  s :     0.915968
      pz      :     0.012974  p :     0.062472
      px      :     0.011672
      py      :     0.037826

  8 H s       :     0.917609  s :     0.917609
      pz      :     0.027114  p :     0.076001
      px      :     0.021868
      py      :     0.027019

  9 H s       :     0.917304  s :     0.917304
      pz      :     0.025328  p :     0.074538
      px      :     0.010077
      py      :     0.039133

 10 H s       :     0.788941  s :     0.788941
      pz      :     0.026759  p :     0.110276
      px      :     0.018123
      py      :     0.065393



                      *****************************
                      * MAYER POPULATION ANALYSIS *
                      *****************************

  NA   - Mulliken gross atomic population
  ZA   - Total nuclear charge
  QA   - Mulliken gross atomic charge
  VA   - Mayer's total valence
  BVA  - Mayer's bonded valence
  FA   - Mayer's free valence

  ATOM       NA         ZA         QA         VA         BVA        FA
  0 C      5.9510     6.0000     0.0490     3.9458     3.9458     0.0000
  1 C      6.1655     6.0000    -0.1655     3.9323     3.9323     0.0000
  2 N      6.9291     7.0000     0.0709     3.7462     3.7462     0.0000
  3 C      6.1593     6.0000    -0.1593     3.7929     3.7929     0.0000
  4 H      0.9976     1.0000     0.0024     1.0024     1.0024    -0.0000
  5 H      0.9783     1.0000     0.0217     0.9747     0.9747    -0.0000
  6 H      0.9784     1.0000     0.0216     0.9748     0.9748    -0.0000
  7 H      1.0102     1.0000    -0.0102     0.9984     0.9984     0.0000
  8 H      0.9798     1.0000     0.0202     0.9856     0.9856    -0.0000
  9 H      0.9764     1.0000     0.0236     0.9980     0.9980     0.0000
 10 H      0.8743     1.0000     0.1257     0.9929     0.9929    -0.0000

  Mayer bond orders larger than 0.100000
B(  0-C ,  1-C ) :   1.0895 B(  0-C ,  5-H ) :   0.9536 B(  0-C ,  6-H ) :   0.9537 
B(  0-C ,  7-H ) :   0.9615 B(  1-C ,  2-N ) :   1.4194 B(  1-C ,  3-C ) :   0.4045 
B(  1-C ,  4-H ) :   0.9721 B(  2-N ,  3-C ) :   1.3803 B(  2-N , 10-H ) :   0.9282 
B(  3-C ,  8-H ) :   0.9747 B(  3-C ,  9-H ) :   0.9759 

-------
TIMINGS
-------

Total SCF time: 0 days 0 hours 0 min 4 sec 

Total time                  ....       4.466 sec
Sum of individual times     ....       4.194 sec  ( 93.9%)

SCF preparation             ....       0.156 sec  (  3.5%)
Fock matrix formation       ....       3.862 sec  ( 86.5%)
  Startup                   ....       0.004 sec  (  0.1% of F)
  Split-RI-J                ....       0.305 sec  (  7.9% of F)
  Chain of spheres X        ....       2.727 sec  ( 70.6% of F)
  XC integration            ....       0.934 sec  ( 24.2% of F)
    XC Preparation          ....       0.000 sec  (  0.0% of XC)
    Basis function eval.    ....       0.281 sec  ( 30.1% of XC)
    Density eval.           ....       0.139 sec  ( 14.9% of XC)
    XC-Functional eval.     ....       0.068 sec  (  7.3% of XC)
    XC-Potential eval.      ....       0.173 sec  ( 18.5% of XC)
Diagonalization             ....       0.000 sec  (  0.0%)
Density matrix formation    ....       0.025 sec  (  0.6%)
Total Energy calculation    ....       0.014 sec  (  0.3%)
Population analysis         ....       0.009 sec  (  0.2%)
Orbital Transformation      ....       0.012 sec  (  0.3%)
Orbital Orthonormalization  ....       0.000 sec  (  0.0%)
DIIS solution               ....       0.061 sec  (  1.4%)
SOSCF solution              ....       0.055 sec  (  1.2%)
Finished LeanSCF after   4.5 sec

Maximum memory used throughout the entire LEANSCF-calculation: 8.2 MB


-------------------------------------------------------------------------------
                          DFT DISPERSION CORRECTION                            
                                                                               
                              DFTD3 V3.1  Rev 1                                
                          USING Becke-Johnson damping                          
-------------------------------------------------------------------------------
The B3LYP functional is recognized
Active option DFTDOPT                   ...         4   

molecular C6(AA) [au] = 935.853800 


            DFT-D V3
 parameters
 s6 scaling factor         :     1.0000 
 a1 scaling factor         :     0.3981 
 s8 scaling factor         :     1.9889 
 a2 scaling factor         :     4.4211 
 ad hoc parameters k1-k3   :    16.0000     1.3333    -4.0000 

 Edisp/kcal,au: -6.876018560293  -0.010957631894 
 E6   /kcal   :  -3.407079374 
 E8   /kcal   :  -3.468939186 
 % E8         :  50.449822895 

-------------------------   ----------------
Dispersion correction           -0.010957632
-------------------------   ----------------


-------------------------   --------------------
FINAL SINGLE POINT ENERGY      -172.978787685218
-------------------------   --------------------



           ************************************************************
           *        Program running with 6 parallel MPI-processes     *
           *              working on a common directory               *
           ************************************************************
------------------------------------------------------------------------------
                         ORCA SCF GRADIENT CALCULATION
------------------------------------------------------------------------------

Nuc. rep. gradient        (SHARK) ... done (  0.0 sec)
HCore & Overlap gradient  (SHARK) ... done (  0.0 sec)
Split-RIJ-J gradient      (SHARK) ... done (  0.1 sec)
done (  2.0 sec)
XC gradient                       ... done (  0.4 sec)
Dispersion correction             ... done (  0.0 sec)

-------------------
DISPERSION GRADIENT
-------------------

   1   C   :    0.000320538   -0.000018566    0.000003433
   2   C   :    0.000146508    0.000077650    0.000015170
   3   N   :   -0.000227965   -0.000030307   -0.000009095
   4   C   :   -0.000369511   -0.000014559   -0.000009674
   5   H   :    0.000045023    0.000194429    0.000031198
   6   H   :    0.000183092    0.000008363   -0.000053960
   7   H   :    0.000180671   -0.000009245    0.000060655
   8   H   :    0.000161586   -0.000093407   -0.000011129
   9   H   :   -0.000162937   -0.000046814   -0.000010537
  10   H   :   -0.000190472    0.000066333    0.000006327
  11   H   :   -0.000086532   -0.000133878   -0.000022389

Difference to translation invariance:
           :    0.0000000000   -0.0000000000    0.0000000000

Difference to rotation invariance:
           :   -0.0000000000   -0.0000000000    0.0000000000

Norm of the Dispersion gradient    ...    0.0007515277
RMS gradient                       ...    0.0001308242
MAX gradient                       ...    0.0003695106

------------------
CARTESIAN GRADIENT
------------------

   1   C   :   -0.000046474    0.000026106   -0.000013017
   2   C   :   -0.000021838   -0.000048061    0.000005058
   3   N   :    0.000095310   -0.000019330    0.000000580
   4   C   :   -0.000078193   -0.000021308    0.000013041
   5   H   :   -0.000005233    0.000035870   -0.000006126
   6   H   :    0.000039953    0.000064301    0.000003824
   7   H   :    0.000030664    0.000005731   -0.000009434
   8   H   :   -0.000028434   -0.000051767    0.000035564
   9   H   :   -0.000034939    0.000017733    0.000014413
  10   H   :    0.000022943    0.000012242   -0.000013493
  11   H   :    0.000026240   -0.000021517   -0.000030411

Difference to translation invariance:
           :   -0.0000000000   -0.0000000000   -0.0000000000

Difference to rotation invariance:
           :   -0.0000120110   -0.0000132722    0.0001557618

Norm of the Cartesian gradient     ...    0.0001990205
RMS gradient                       ...    0.0000346450
MAX gradient                       ...    0.0000953099

-------
TIMINGS
-------

Total SCF gradient time     ....        2.631 sec

Densities                   ....       0.000 sec  (  0.0%)
One electron gradient       ....       0.021 sec  (  0.8%)
RI-J Coulomb gradient       ....       0.149 sec  (  5.7%)
COSX gradient               ....       2.026 sec  ( 77.0%)
XC gradient                 ....       0.387 sec  ( 14.7%)

Maximum memory used throughout the entire SCFGRAD-calculation: 26.8 MB


           ************************************************************
           *        Program running with 6 parallel MPI-processes     *
           *              working on a common directory               *
           ************************************************************

------------------------------------------------------------------------------
                              ORCA PROPERTY CALCULATIONS
------------------------------------------------------------------------------

GBWName                                 ... orca.gbw
Number of atoms                         ...     11
Number of basis functions               ...     91
Max core memory                         ...   4096 MB

Electric properties:
Dipole moment                           ... YES
Quadrupole moment                       ...  NO
Static polarizability (Dipole/Dipole)   ...  NO
Static polarizability (Dipole/Quad.)    ...  NO
Static polarizability (Quad./Quad.)     ...  NO
Static polarizability (Velocity)        ...  NO
Static hyperpolarizability              ...  NO

Atomic electric properties:
Dipole moment                           ...  NO
Quadrupole moment                       ...  NO
Static polarizability                   ...  NO

Choice of electric origin               ... Center of mass
Position of electric origin             ...    -0.051486     0.102507    -0.112546

General magnetic properties:
Magnetizability                         ...  NO

EPR properties:
g-Tensor (aka g-matrix)                 ...  NO
Zero-Field splitting spin-orbit         ...  NO
Zero-field splitting spin-spin          ...  NO
Hyperfine couplings                     ...  NO (   0 nuclei)
Quadrupole couplings                    ...  NO (   0 nuclei)
Contact density                         ...  NO (   0 nuclei)

NMR properties:
Chemical shifts                         ...  NO (   0 nuclei)
Spin-rotation constants                 ...  NO (   0 nuclei)
Spin-spin couplings                     ...  NO (   0 nuclei,    0 pairs)

Choice of magnetic origin               ... GIAO
Position of magnetic origin             ...     0.000000     0.000000     0.000000

Properties with geometric perturbations:
SCF Hessian                             ...  NO
IR spectrum                             ...  NO
VCD spectrum                            ...  NO
X-ray spectroscopy properties:
SCF XES/XAS/RIXS spectra                ...  NO

SCF SOC stabilization energy            ...  NO
Diagonal Born-Oppenheimer correction    ...  NO

-------------
DIPOLE MOMENT
-------------

Method             : SCF
Type of density    : Electron Density
Multiplicity       :   1
Irrep              :   0
Energy             :  -172.9678300533238939 Eh
Basis              : AO
                                X                 Y                 Z
Electronic contribution:     -1.562873244      -0.017988497      -0.031324861
Nuclear contribution   :      1.845343759      -0.431287445      -0.033832654
                        -----------------------------------------
Total Dipole Moment    :      0.282470515      -0.449275942      -0.065157515
                        -----------------------------------------
Magnitude (a.u.)       :      0.534681181
Magnitude (Debye)      :      1.359051558



--------------------
Rotational spectrum 
--------------------
 
Rotational constants in cm-1:             1.293560             0.137188             0.126989 
Rotational constants in MHz :         38779.949331          4112.804736          3807.035471 

Dipole components along the rotational axes: 
x,y,z [a.u.] :    -0.283763     0.453169     0.000900 
x,y,z [Debye]:    -0.721267     1.151864     0.002287 

 

Dipole moment calculation done in   0.0 sec 

Maximum memory used throughout the entire PROP-calculation: 4.9 MB

--------------------------------
SUGGESTED CITATIONS FOR THIS RUN
--------------------------------

Below you find a list of papers that are relevant to this ORCA run
We neither can nor want to force you to cite these papers, but we appreciate if you do
You receive ORCA, which is the product of decades of hard work by many enthusiastic individuals, for free
The only thing we kindly ask in return is that you cite our papers,
We deeply appreciate it, if you show your appreciation for ORCA by not just citing the generic ORCA reference.

Please note that relegating all ORCA citations to the supporting information does *not* help us.
SI sections are not indexed - citations you put there will not count into any citation statistics
But we need these citations in order to attract the funding resources that allow us to do what we are doing

Therefore, if you are a happy ORCA user, please consider citing a few of the papers listed below in the main body of your paper

In addition to the list printed below, the program has created the file orca.bibtex that contains the list in bibtex format
You can import this file easily into all common literature databanks and citation aid programs


List of essential papers. We consider these as the minimum necessary citations

  1. Neese, F.
     Software update: the ORCA program system, version 6.0
     WIRES Comput. Molec. Sci. 2025 15(1), e70019
     doi.org/10.1002/wcms.7019

List of papers to cite with high priority. The work reported in these papers was absolutely
necessary for this run to complete.
Our perspective: the developers of density functionals and basis sets usually get cited in chemistry papers
Good! But without the algorithms to do something with them, the functionals or basis sets would not do anything.
Hence, in our opinion, the algorithm design and method developments papers are equally worthy of getting cited

  1. Neese, F.
     An improvement of the resolution of the identity approximation for the formation of the Coulomb matrix
     J. Comp. Chem. 2003 24(14), 1740-1747
     doi.org/10.1002/jcc.10318
  2. Neese, F.; Wennmohs, F.; Hansen, A.; Becker, U.
     Efficient, approximate and parallel Hartree-Fock and hybrid DFT calculations. A 'chain-of-spheres' algorithm for the Hartree-Fock exchange
     Chem. Phys. 2009 356(1-3), 98-109
     doi.org/10.1016/j.chemphys.2008.10.036
  3. Grimme, S.; Antony, J.; Ehrlich, S.; Krieg, H.
     A consistent and accurate ab initio parametrization of density functional dispersion correction (DFT-D) for the 94 elements H-Pu
     J. Chem. Phys. 2010 132 , 154104
     doi.org/10.1063/1.3382344
  4. Grimme, S.; Ehrlich, S.; Goerigk, L.
     Effect of the damping function in dispersion corrected density functional theory
     J. Comput. Chem. 2011 32(7), 1456-1465
     doi.org/10.1002/jcc.21759
  5. Helmich-Paris, B.; de Souza, B.; Neese, F.; Izsák, R.
     An improved chain of spheres for exchange algorithm
     J. Chem. Phys. 2021 155(10), 104109
     doi.org/10.1063/5.0058766
  6. Neese, F.
     The SHARK Integral Generation and Digestion System
     J. Comp. Chem. 2022 44(3), 381
     doi.org/10.1002/jcc.26942

List of suggested additional citations. These are papers that are important in the 'surrounding' of 
of this run, or papers that preceded the highly important papers. If you like your results we are grateful for a citation.

  1. Izsak, R.; Neese, F.
     An overlap fitted chain of spheres exchange method
     J. Chem. Phys. 2011 135 , 144105
     doi.org/10.1063/1.3646921
  2. Izsak, R.; Hansen, A.; Neese, F.
     The resolution of identity and chain of spheres approximations for the LPNO-CCSD singles Fock term
     Molec. Phys. 2012 110 , 2413-2417
     doi.org/10.1080/00268976.2012.687466
  3. Neese, F.
     The ORCA program system
     WIRES Comput. Molec. Sci. 2012 2(1), 73-78
     doi.org/10.1002/wcms.81
  4. Izsak, R.; Neese, F.; Klopper, W.
     Robust fitting techniques in the chain of spheres approximation to the Fock exchange: The role of the complementary space
     J. Chem. Phys. 2013 139 , 
     doi.org/10.1063/1.4819264
  5. Neese, F.
     Software update: the ORCA program system, version 4.0
     WIRES Comput. Molec. Sci. 2018 8(1), 1-6
     doi.org/10.1002/wcms.1327
  6. Neese, F.; Wennmohs, F.; Becker, U.; Riplinger, C.
     The ORCA quantum chemistry program package
     J. Chem. Phys. 2020 152(22), 224108
     doi.org/10.1063/5.0004608
  7. Neese, F.
     Software update: The ORCA program system—Version 5.0
     WIRES Comput. Molec. Sci. 2022 12(1), e1606
     doi.org/10.1002/wcms.1606

List of optional additional citations

  1. Neese, F.
     Approximate second-order SCF convergence for spin unrestricted wavefunctions
     Chem. Phys. Lett. 2000 325(1-3), 93-98
     doi.org/10.1016/s0009-2614(00)00662-x

Timings for individual modules:

Sum of individual times          ...       10.094 sec (=   0.168 min)
Startup calculation              ...        1.211 sec (=   0.020 min)  12.0 %
SCF iterations                   ...        5.382 sec (=   0.090 min)  53.3 %
Property calculations            ...        0.414 sec (=   0.007 min)   4.1 %
SCF Gradient evaluation          ...        3.087 sec (=   0.051 min)  30.6 %
                             ****ORCA TERMINATED NORMALLY****
TOTAL RUN TIME: 0 days 0 hours 0 minutes 10 seconds 654 msec
