
                                 *****************
                                 * O   R   C   A *
                                 *****************

                                            #,                                       
                                            ###                                      
                                            ####                                     
                                            #####                                    
                                            ######                                   
                                           ########,                                 
                                     ,,################,,,,,                         
                               ,,#################################,,                 
                          ,,##########################################,,             
                       ,#########################################, ''#####,          
                    ,#############################################,,   '####,        
                  ,##################################################,,,,####,       
                ,###########''''           ''''###############################       
              ,#####''   ,,,,##########,,,,          '''####'''          '####       
            ,##' ,,,,###########################,,,                        '##       
           ' ,,###''''                  '''############,,,                           
         ,,##''                                '''############,,,,        ,,,,,,###''
      ,#''                                            '''#######################'''  
     '                                                          ''''####''''         
             ,#######,   #######,   ,#######,      ##                                
            ,#'     '#,  ##    ##  ,#'     '#,    #''#        ,####,    ,#,          
            ##       ##  ##   ,#'  ##            #'  '#       #'       ,# #          
            ##       ##  #######   ##           ,######,      #####,      #          
            '#,     ,#'  ##    ##  '#,     ,#' ,#      #,     #,   #      #          
             '#######'   ##     ##  '#######'  #'      '#     '####' #    #          



                #########################################################
                #                        -***-                          #
                #          Department of theory and spectroscopy        #
                #                                                       #
                #                      Frank Neese                      #
                #                                                       #
                #     Directorship, Architecture, Infrastructure        #
                #                    SHARK, DRIVERS                     #
                #        Core code/Algorithms in most modules           #
                #                                                       #
                #        Max Planck Institute fuer Kohlenforschung      #
                #                Kaiser Wilhelm Platz 1                 #
                #                 D-45470 Muelheim/Ruhr                 #
                #                      Germany                          #
                #                                                       #
                #                  All rights reserved                  #
                #                        -***-                          #
                #########################################################


                         Program Version 6.1.0  -  RELEASE   -
                                (GIT: $679e74b$)
                          ($2025-06-10 18:02:51 +0200$)


 With contributions from (in alphabetic order):
[Max-Planck-Institut fuer Kohlenforschung]                               
  Daniel Aravena         : Magnetic Suceptibility                        
  Michael Atanasov       : Ab Initio Ligand Field Theory (pilot matlab implementation)
  Alexander A. Auer      : GIAO ZORA, VPT2 properties, NMR spectrum      
  Ute Becker             : All parallelization in ORCA, NUMFREQ, NUMCALC 
  Giovanni Bistoni       : ED, misc. LED, open-shell LED, HFLD           
  Dmytro Bykov           : pre 5.0 version of the SCF Hessian            
  Marcos Casanova-Páez   : Triplet and SCS-CIS(D). UHF-(DLPNO)-IP/EA/STEOM-CCSD. UHF-CVS-IP/STEOM-CCSD   
  Vijay G. Chilkuri      : MRCI spin determinant printing, contributions to CSF-ICE 
  Pauline Colinet        : FMM embedding                                 
  Dipayan Datta          : RHF DLPNO-CCSD density                        
  Achintya Kumar Dutta   : EOM-CC, STEOM-CC                              
  Nicolas Foglia         : Exact transition moments, OPA infrastructure, MCD improvements    
  Dmitry Ganyushin       : Spin-Orbit,Spin-Spin,Magnetic field MRCI      
  Miquel Garcia-Rates    : C-PCM and meta-GGA Hessian, CCSD/C-PCM, Gaussian charge scheme 
  Tiago L. C. Gouveia    : GS-ROHF, GS-ROCIS                             
  Yang Guo               : DLPNO-NEVPT2, F12-NEVPT2, CIM, IAO-localization        
  Andreas Hansen         : Spin unrestricted coupled pair/coupled cluster methods 
  Ingolf Harden          : AUTO-CI MPn and infrastructure                
  Benjamin Helmich-Paris : MC-RPA, TRAH-(SCF,CASSCF), AVAS, COSX integrals, SCF dyn. polar., MC-PDFT, srDFT 
  Lee Huntington         : MR-EOM, pCC                                   
  Robert Izsak           : Overlap fitted RIJCOSX, COSX-SCS-MP3, EOM     
  Riya Kayal             : Wick's Theorem for AUTO-CI, AUTO-CI UHF-CCSDT 
  Emily Kempfer          : AUTO-CI RHF CISDT and CCSDT, approximate NEVPT4
  Christian Kollmar      : KDIIS, OOCD, Brueckner-CCSD(T), CCSD density, CASPT2, CASPT2-K, improved NEVPT2 
  Axel Koslowski         : Symmetry handling                             
  Simone Kossmann        : meta-GGA functionals, TD-DFT gradient, OOMP2, (MP2 Hessian; deprecated post 5.0) 
  Lucas Lang             : DCDCAS, Hyperfine gauge corrections, ICE-SOC+SSC
  Marvin Lechner         : AUTO-CI (C++ implementation), FIC-MRCC        
  Spencer Leger          : CASSCF response                               
  Dagmar Lenk            : GEPOL surface, SMD, ORCA-2-JSON               
  Dimitrios Liakos       : Extrapolation schemes; Compound Job, Property file
  Dimitrios Manganas     : Further ROCIS development; embedding schemes. LFT, Crystal Embedding 
  Dimitrios Pantazis     : SARC Basis sets                               
  Anastasios Papadopoulos: AUTO-CI, single reference methods and gradients 
  Taras Petrenko         : pre 6.0 DFT Hessian and TD-DFT gradient,  ECA, NRVS 
  Petra Pikulova         : Analytic Raman intensities                    
  Peter Pinski           : DLPNO-MP2, DLPNO-MP2 Gradient                 
  Shashank Vittal Rao    : ES-AILFT, MagRelax                            
  Christoph Reimann      : Effective Core Potentials                     
  Marius Retegan         : Local ZFS, SOC                                
  Christoph Riplinger    : Optimizer, TS searches, QM/MM, DLPNO-CCSD(T), (RO)-DLPNO pert. Triples 
  Michael Roemelt        : Original ROCIS implementation, recursive CI coupling coefficients
  Masaaki Saitow         : Open-shell DLPNO-CCSD energy and density      
  Barbara Sandhoefer     : DKH picture change effects                    
  Yorick L. A. Schmerwitz: GMF and freeze-and-release deltaSCF, NEB S-IDPP initial path                    
  Kantharuban Sivalingam : CASSCF convergence/infrastructure, NEVPT2, NEVPT3, NEVPT4(SD), FIC-MRCI and CEPA variants
  Bernardo de Souza      : ESD, SOC TD-DFT                               
  Georgi L. Stoychev     : AutoAux, RI-MP2 NMR, DLPNO-MP2 response, X2C  
  Van Anh Tran           : RI-MP2 g-tensors                              
  Willem Van den Heuvel  : Paramagnetic NMR                              
  Zikuan Wang            : NOTCH, Electric field optimization            
  Frank Wennmohs         : Technical directorship and infrastructure     
  Hang Xu                : AUTO-CI-Response properties                   
                                                                         
[FACCTs GmbH]                                                            
  Markus Bursch, Nicolas Foglia, Miquel Garcia-Rates, Ingolf Harden, Hagen Neugebauer, Anastasios Papadopoulos, 
  Christoph Riplinger, Bernardo de Souza, Georgi L. Stoychev                                                    
                                                                 
  APM, various basis sets, CI-OPT, improved COSX, DLPNO-Multilevel,           
  DOCKER, DRACO, updates on ESD, Fragmentator, GOAT, IRC, LR-CPCM, L-BFGS, MBIS, meta-GGA TD-DFT gradient, ML-optimized integration grids, 
  MM, NACMEs, nearIR, NEB, NEB-TS, NL-DFT gradient (VV10), 2- and 3-layer-ONIOM, interface openCOSMO-RS, QMMM,   
  Crystal-QMMM, RESP, rigid body optimization, SF, symmetry and pop. for TD-DFT, various functionals, SOLVATOR                                   
                                                                         
[Other institutions]                                                     
  V. Asgeirsson          : NEB                                           
  Christoph Bannwarth    : sTDA-DFT, sTD-DFT, PBEh-3c, B97-3c, D3        
  Giovanni Bistoni       : ETS/NOCV, ADLD/ADEX, COVALED                  
  Martin Brehm           : Molecular dynamics                            
  Ronald Cardenas        : ETS/NOCV                                      
  Martina Colucci        : COVALED                                       
  Sebastian Ehlert       : rSCAN, r2SCAN, r2SCAN-3c, D4, dhf basis sets  
  Marvin Friede          : D4 for Fr, Ra, Ac-Lr                          
  Lars Goerigk           : TD-DFT with DH, B97 family of functionals     
  Stefan Grimme          : VdW corrections, initial TS optimization, DFT functionals, gCP, sTDA/sTD-DF 
  Waldemar Hujo          : DFT-NL                                        
  H. Jonsson             : NEB                                           
  Holger Kruse           : gCP                                           
  Marcel Mueller         : wB97X-3c, vDZP basis set                      
  Hagen Neugebauer       : wr2SCAN, Native XTB                           
  Gianluca Regni         : ADLD/ADEX                                     
  Tobias Risthaus        : pre 6.0 range-separated hybrid DFT and stability analysis
  Lukas Wittmann         : regularized MP2, r2SCAN double-hybrids, wr2SCAN        
                                                                         
We gratefully acknowledge several colleagues who have allowed us to      
interface, adapt or use parts of their codes:                            
  Ed Valeev, F. Pavosevic, A. Kumar             : LibInt (2-el integral package), F12 methods 
  Garnet Chan, S. Sharma, J. Yang, R. Olivares  : DMRG                   
  Ulf Ekstrom                                   : XCFun DFT Library      
  Mihaly Kallay                                 : mrcc  (arbitrary order and MRCC methods)
  Frank Weinhold                                : gennbo (NPA and NBO analysis)           
  Simon Mueller                                 : openCOSMO-RS                            
  Christopher J. Cramer and Donald G. Truhlar   : smd solvation model                     
  S Lehtola, MJT Oliveira, MAL Marques          : LibXC Library                           
  Liviu Ungur et al                             : ANISO software                          


 Your calculation uses the libint2 library for the computation of 2-el integrals
 For citations please refer to: http://libint.valeyev.net

 Your ORCA version has been built with support for libXC version: 7.0.0
 For citations please refer to: https://libxc.gitlab.io

 This ORCA versions uses:
   CBLAS   interface :  Fast vector & matrix operations
   LAPACKE interface :  Fast linear algebra routines
   SCALAPACK package :  Parallel linear algebra routines
   Shared memory     :  Shared parallel matrices
   BLAS/LAPACK       :  OpenBLAS 0.3.29  USE64BITINT DYNAMIC_ARCH NO_AFFINITY Zen SINGLE_THREADED
        Core in use  :  Zen
   Copyright (c) 2011-2014, The OpenBLAS Project


  ***********************************
  * Starting time: Wed Sep 10 13:38:04 2025
  * Host name:     wyk-Server
  * Process ID:    2307478
  * Working dir.:  /home/wyk/Documents/code/openQDC/MGMR/singlepointcalc/90/prod
  ***********************************

Your calculation utilizes the atom-pairwise dispersion correction
with the Becke-Johnson damping scheme (D3BJ)


Warning: RI is on but no J-basis has been assigned. Assigning Def2/J (nothing to worry about!)
================================================================================

----- Orbital basis set information -----
Your calculation utilizes the basis: def2-SVP
   F. Weigend and R. Ahlrichs, Phys. Chem. Chem. Phys. 7, 3297 (2005).

----- AuxJ basis set information -----
Your calculation utilizes the auxiliary basis: def2/J
   H-Rn: F. Weigend, Phys. Chem. Chem. Phys. 8, 1057 (2006).
   Fr-Lr: K. Eichkorn, F. Weigend, O. Treutler, R. Ahlrichs; Theor. Chem. Acc. 97, 119 (1997).

================================================================================
                                        WARNINGS
                       Please study these warnings very carefully!
================================================================================


================================================================================
                                       INPUT FILE
================================================================================
NAME = orca.inp
|  1> ! B3LYP def2-SVP d3 EnGrad 
|  2> %pal nprocs 6 end 
|  3> *xyz 0 1 
|  4> C   0.38808805414622 0.40593986030064 0.22037685330488
|  5> C   1.47508220521245 1.26528543952471 0.01049927522596
|  6> C   2.75720399735279 0.75771191212704 -0.22398608455656
|  7> C   2.96763374262201 -0.62272442072424 -0.2555392615528
|  8> C   1.88848437998392 -1.49003666771166 -0.05327868514254
|  9> C   0.61008877983736 -0.98133318430125 0.18267438047436
| 10> O   -2.51541997130938 -0.8456157412823 -0.38862183613204
| 11> C   -1.00112032501599 0.94811794813954 0.481965802377
| 12> C   -2.02422621587052 0.4851335404475 -0.53277080771653
| 13> C   -3.42367753236871 0.22657469895397 -0.16614942401942
| 14> H   1.31692965817546 2.34776202242799 0.03373023737957
| 15> H   3.59293960590978 1.44426917443889 -0.38330376686122
| 16> H   3.96837866993769 -1.02283343719101 -0.43771347780708
| 17> H   2.04454622587306 -2.57191395904772 -0.07775719029012
| 18> H   -0.23369227404477 -1.65825645360708 0.33375002629041
| 19> H   -1.34373286240362 0.63511419924089 1.4834045474322
| 20> H   -1.8045405276649 0.76826306910375 -1.57299905474277
| 21> H   -4.21872911483304 0.34105375764218 -0.91508441381488
| 22> H   -3.74173341375736 0.37437396871386 0.87540240005075
| 23> H   -0.97683108178243 2.05080227280429 0.47913448010081
| 24> *
| 25> 
| 26>                          ****END OF INPUT****
================================================================================

                     *******************************
                     * Energy+Gradient Calculation *
                     *******************************

---------------------------------
CARTESIAN COORDINATES (ANGSTROEM)
---------------------------------
  C      0.388088    0.405940    0.220377
  C      1.475082    1.265285    0.010499
  C      2.757204    0.757712   -0.223986
  C      2.967634   -0.622724   -0.255539
  C      1.888484   -1.490037   -0.053279
  C      0.610089   -0.981333    0.182674
  O     -2.515420   -0.845616   -0.388622
  C     -1.001120    0.948118    0.481966
  C     -2.024226    0.485134   -0.532771
  C     -3.423678    0.226575   -0.166149
  H      1.316930    2.347762    0.033730
  H      3.592940    1.444269   -0.383304
  H      3.968379   -1.022833   -0.437713
  H      2.044546   -2.571914   -0.077757
  H     -0.233692   -1.658256    0.333750
  H     -1.343733    0.635114    1.483405
  H     -1.804541    0.768263   -1.572999
  H     -4.218729    0.341054   -0.915084
  H     -3.741733    0.374374    0.875402
  H     -0.976831    2.050802    0.479134

----------------------------
CARTESIAN COORDINATES (A.U.)
----------------------------
  NO LB      ZA    FRAG     MASS         X           Y           Z
   0 C     6.0000    0    12.011    0.733380    0.767115    0.416452
   1 C     6.0000    0    12.011    2.787501    2.391043    0.019841
   2 C     6.0000    0    12.011    5.210360    1.431868   -0.423272
   3 C     6.0000    0    12.011    5.608015   -1.176779   -0.482899
   4 C     6.0000    0    12.011    3.568718   -2.815761   -0.100682
   5 C     6.0000    0    12.011    1.152901   -1.854451    0.345205
   6 O     8.0000    0    15.999   -4.753455   -1.597982   -0.734389
   7 C     6.0000    0    12.011   -1.891843    1.791683    0.910783
   8 C     6.0000    0    12.011   -3.825233    0.916770   -1.006791
   9 C     6.0000    0    12.011   -6.469813    0.428164   -0.313977
  10 H     1.0000    0     1.008    2.488636    4.436627    0.063741
  11 H     1.0000    0     1.008    6.789672    2.729273   -0.724339
  12 H     1.0000    0     1.008    7.499149   -1.932875   -0.827159
  13 H     1.0000    0     1.008    3.863632   -4.860213   -0.146940
  14 H     1.0000    0     1.008   -0.441614   -3.133651    0.630696
  15 H     1.0000    0     1.008   -2.539287    1.200192    2.803228
  16 H     1.0000    0     1.008   -3.410087    1.451807   -2.972537
  17 H     1.0000    0     1.008   -7.972243    0.644498   -1.729259
  18 H     1.0000    0     1.008   -7.070851    0.707464    1.654271
  19 H     1.0000    0     1.008   -1.845943    3.875455    0.905433

--------------------------------
INTERNAL COORDINATES (ANGSTROEM)
--------------------------------
 C      0   0   0     0.000000000000     0.00000000     0.00000000
 C      1   0   0     1.401456280718     0.00000000     0.00000000
 C      2   1   0     1.398731768263   120.90054286     0.00000000
 C      3   2   1     1.396739327766   120.03510400     0.19614721
 C      4   3   2     1.399179481491   119.54933694     0.09357097
 C      5   4   3     1.395975785493   120.32192501   359.80511100
 O      6   5   4     3.180189230996   152.27783986   130.10663926
 C      1   2   3     1.514029648965   121.19592678   179.67591679
 C      7   6   5     1.425813410729    73.70487331   235.02886910
 C      7   6   5     1.422679904795   129.16138530   205.07902334
 H      2   1   3     1.094215453314   119.42729649   180.18130544
 H      3   2   1     1.093250660068   119.81897029   180.13472625
 H      4   3   2     1.093053100116   120.23013932   180.04948703
 H      5   4   3     1.093349427432   120.00278101   179.91826128
 H      6   5   4     1.092252457162   120.33033983   179.57765279
 H      8   1   2     1.103736498308   109.87874135   242.26229088
 H      9   7   6     1.100226766404   113.86315410    96.41673498
 H     10   7   6     1.098233168593   115.72742373   143.88974402
 H     10   7   6     1.099015181902   115.74132109   282.76796903
 H      8   1   2     1.102955440434   109.71640068   359.66147307

---------------------------
INTERNAL COORDINATES (A.U.)
---------------------------
 C      0   0   0     0.000000000000     0.00000000     0.00000000
 C      1   0   0     2.648368559221     0.00000000     0.00000000
 C      2   1   0     2.643219976833   120.90054286     0.00000000
 C      3   2   1     2.639454809955   120.03510400     0.19614721
 C      4   3   2     2.644066032221   119.54933694     0.09357097
 C      5   4   3     2.638011924167   120.32192501   359.80511100
 O      6   5   4     6.009686700628   152.27783986   130.10663926
 C      1   2   3     2.861101395180   121.19592678   179.67591679
 C      7   6   5     2.694396864350    73.70487331   235.02886910
 C      7   6   5     2.688475396295   129.16138530   205.07902334
 H      2   1   3     2.067767538268   119.42729649   180.18130544
 H      3   2   1     2.065944343256   119.81897029   180.13472625
 H      4   3   2     2.065571009053   120.23013932   180.04948703
 H      5   4   3     2.066130986526   120.00278101   179.91826128
 H      6   5   4     2.064058013139   120.33033983   179.57765279
 H      8   1   2     2.085759705816   109.87874135   242.26229088
 H      9   7   6     2.079127273712   113.86315410    96.41673498
 H     10   7   6     2.075359919829   115.72742373   143.88974402
 H     10   7   6     2.076837710817   115.74132109   282.76796903
 H      8   1   2     2.084283720340   109.71640068   359.66147307

---------------------
BASIS SET INFORMATION
---------------------
There are 3 groups of distinct atoms

 Group   1 Type C   : 7s4p1d contracted to 3s2p1d pattern {511/31/1}
 Group   2 Type O   : 7s4p1d contracted to 3s2p1d pattern {511/31/1}
 Group   3 Type H   : 4s1p contracted to 2s1p pattern {31/1}

Atom   0C    basis set group =>   1
Atom   1C    basis set group =>   1
Atom   2C    basis set group =>   1
Atom   3C    basis set group =>   1
Atom   4C    basis set group =>   1
Atom   5C    basis set group =>   1
Atom   6O    basis set group =>   2
Atom   7C    basis set group =>   1
Atom   8C    basis set group =>   1
Atom   9C    basis set group =>   1
Atom  10H    basis set group =>   3
Atom  11H    basis set group =>   3
Atom  12H    basis set group =>   3
Atom  13H    basis set group =>   3
Atom  14H    basis set group =>   3
Atom  15H    basis set group =>   3
Atom  16H    basis set group =>   3
Atom  17H    basis set group =>   3
Atom  18H    basis set group =>   3
Atom  19H    basis set group =>   3
---------------------------------
AUXILIARY/J BASIS SET INFORMATION
---------------------------------
There are 3 groups of distinct atoms

 Group   1 Type C   : 12s5p4d2f1g contracted to 6s4p3d1f1g pattern {711111/2111/211/2/1}
 Group   2 Type O   : 12s5p4d2f1g contracted to 6s4p3d1f1g pattern {711111/2111/211/2/1}
 Group   3 Type H   : 5s2p1d contracted to 3s1p1d pattern {311/2/1}

Atom   0C    basis set group =>   1
Atom   1C    basis set group =>   1
Atom   2C    basis set group =>   1
Atom   3C    basis set group =>   1
Atom   4C    basis set group =>   1
Atom   5C    basis set group =>   1
Atom   6O    basis set group =>   2
Atom   7C    basis set group =>   1
Atom   8C    basis set group =>   1
Atom   9C    basis set group =>   1
Atom  10H    basis set group =>   3
Atom  11H    basis set group =>   3
Atom  12H    basis set group =>   3
Atom  13H    basis set group =>   3
Atom  14H    basis set group =>   3
Atom  15H    basis set group =>   3
Atom  16H    basis set group =>   3
Atom  17H    basis set group =>   3
Atom  18H    basis set group =>   3
Atom  19H    basis set group =>   3


           ************************************************************
           *        Program running with 6 parallel MPI-processes     *
           *              working on a common directory               *
           ************************************************************
------------------------------------------------------------------------------
                             ORCA STARTUP CALCULATIONS
                           -- RI-GTO INTEGRALS CHOSEN --
------------------------------------------------------------------------------
------------------------------------------------------------------------------
                   ___                                                        
                  /   \      - P O W E R E D   B Y -                         
                 /     \                                                     
                 |  |  |   _    _      __       _____    __    __             
                 |  |  |  | |  | |    /  \     |  _  \  |  |  /  |          
                  \  \/   | |  | |   /    \    | | | |  |  | /  /          
                 / \  \   | |__| |  /  /\  \   | |_| |  |  |/  /          
                |  |  |   |  __  | /  /__\  \  |    /   |      \           
                |  |  |   | |  | | |   __   |  |    \   |  |\   \          
                \     /   | |  | | |  |  |  |  | |\  \  |  | \   \       
                 \___/    |_|  |_| |__|  |__|  |_| \__\ |__|  \__/        
                                                                              
                      - O R C A' S   B I G   F R I E N D -                    
                                      &                                       
                       - I N T E G R A L  F E E D E R -                       
                                                                              
 v1 FN, 2020, v2 2021, v3 2022-2024                                           
------------------------------------------------------------------------------


----------------------
SHARK INTEGRAL PACKAGE
----------------------

Number of atoms                             ...     20
Number of basis functions                   ...    190
Number of shells                            ...     90
Maximum angular momentum                    ...      2
Integral batch strategy                     ... SHARK/LIBINT Hybrid
RI-J (if used) integral strategy            ... SPLIT-RIJ (Revised 2003 algorithm where possible)
Printlevel                                  ...      1
Contraction scheme used                     ... SEGMENTED contraction
Prescreening option                         ... SCHWARTZ
   Thresh                                   ... 2.500e-11
   Tcut                                     ... 2.500e-12
   Tpresel                                  ... 2.500e-12 
Coulomb Range Separation                    ... NOT USED
Exchange Range Separation                   ... NOT USED
Multipole approximations                    ... NOT USED
Finite Nucleus Model                        ... NOT USED
CABS basis                                  ... NOT available
Auxiliary Coulomb fitting basis             ... AVAILABLE
   # of basis functions in Aux-J            ...    600
   # of shells in Aux-J                     ...    200
   Maximum angular momentum in Aux-J        ...      4
Auxiliary J/K fitting basis                 ... NOT available
Auxiliary Correlation fitting basis         ... NOT available
Auxiliary 'external' fitting basis          ... NOT available

Checking pre-screening integrals            ... done (  0.0 sec) Dimension = 90
   => SHARK Basis and OBASIS are compatible. Storing Pre-screening
Shell pair information
Shell pair cut-off parameter TPreSel        ...   2.5e-12
Total number of shell pairs                 ...      4095
Shell pairs after pre-screening             ...      3677
Total number of primitive shell pairs       ...     14695
Primitive shell pairs kept                  ...      9497
          la=0 lb=0:   1161 shell pairs
          la=1 lb=0:   1353 shell pairs
          la=1 lb=1:    416 shell pairs
          la=2 lb=0:    439 shell pairs
          la=2 lb=1:    262 shell pairs
          la=2 lb=2:     46 shell pairs

Checking whether 4 symmetric matrices of dimension 190 fit in memory
:Max Core in MB      =   4096.00
 MB in use           =      8.05
 MB left             =   4087.95
 MB needed           =      0.55
 Data fit in memory  = YES
Calculating RI/J V-Matrix + Cholesky decomp.... done (  0.0 sec)
Calculating Nuclear repulsion               ... done (  0.0 sec) ENN=    483.362331305853 Eh

Diagonalization of the overlap matrix:
Smallest eigenvalue                        ... 2.990e-04
Time for diagonalization                   ...    0.006 sec
Threshold for overlap eigenvalues          ... 1.000e-07
Number of eigenvalues below threshold      ... 0
Time for construction of square roots      ...    0.003 sec
Total time needed                          ...    0.010 sec

-------------------
DFT GRID GENERATION
-------------------

General Integration Accuracy     IntAcc      ... 4.388
Radial Grid Type                 RadialGrid  ... OptM3 with GC (2021)
Angular Grid (max. ang.)         AngularGrid ... 4 (Lebedev-302)
Angular grid pruning method      GridPruning ... 4 (adaptive)
Weight generation scheme         WeightScheme... mBecke (2022)
Basis function cutoff            BFCut       ... 1.0000e-11
Integration weight cutoff        WCut        ... 1.0000e-14
Partially contracted basis set               ... off
Rotationally invariant grid construction     ... off
Angular grids for H and He will be reduced by one unit

Total number of grid points                  ...    92182
Total number of batches                      ...     1451
Average number of points per batch           ...       63
Average number of grid points per atom       ...     4609

--------------------
COSX GRID GENERATION
--------------------

GRIDX 1
-------
General Integration Accuracy     IntAcc      ... 3.816
Radial Grid Type                 RadialGrid  ... OptM3 with GC (2021)
Angular Grid (max. ang.)         AngularGrid ... 1 (Lebedev-50)
Angular grid pruning method      GridPruning ... 4 (adaptive)
Weight generation scheme         WeightScheme... mBecke (2022)
Basis function cutoff            BFCut       ... 1.0000e-11
Integration weight cutoff        WCut        ... 1.0000e-14
Partially contracted basis set               ... on
Rotationally invariant grid construction     ... off
Angular grids for H and He will be reduced by one unit

Total number of grid points                  ...    11777
Total number of batches                      ...      104
Average number of points per batch           ...      113
Average number of grid points per atom       ...      589
UseSFitting                                  ... on

GRIDX 2
-------
General Integration Accuracy     IntAcc      ... 4.020
Radial Grid Type                 RadialGrid  ... OptM3 with GC (2021)
Angular Grid (max. ang.)         AngularGrid ... 2 (Lebedev-110)
Angular grid pruning method      GridPruning ... 4 (adaptive)
Weight generation scheme         WeightScheme... mBecke (2022)
Basis function cutoff            BFCut       ... 1.0000e-11
Integration weight cutoff        WCut        ... 1.0000e-14
Partially contracted basis set               ... on
Rotationally invariant grid construction     ... off
Angular grids for H and He will be reduced by one unit

Total number of grid points                  ...    25452
Total number of batches                      ...      210
Average number of points per batch           ...      121
Average number of grid points per atom       ...     1273
UseSFitting                                  ... on

GRIDX 3
-------
General Integration Accuracy     IntAcc      ... 4.338
Radial Grid Type                 RadialGrid  ... OptM3 with GC (2021)
Angular Grid (max. ang.)         AngularGrid ... 3 (Lebedev-194)
Angular grid pruning method      GridPruning ... 4 (adaptive)
Weight generation scheme         WeightScheme... mBecke (2022)
Basis function cutoff            BFCut       ... 1.0000e-11
Integration weight cutoff        WCut        ... 1.0000e-14
Partially contracted basis set               ... on
Rotationally invariant grid construction     ... off
Angular grids for H and He will be reduced by one unit

Total number of grid points                  ...    55814
Total number of batches                      ...      449
Average number of points per batch           ...      124
Average number of grid points per atom       ...     2791
UseSFitting                                  ... on
Grids setup in   1.5 sec
Initializing property integral containers    ... done (  0.0 sec)

SHARK setup successfully completed in   1.6 seconds

Maximum memory used throughout the entire STARTUP-calculation: 26.2 MB


           ************************************************************
           *        Program running with 6 parallel MPI-processes     *
           *              working on a common directory               *
           ************************************************************
-------------------------------------------------------------------------------
                                 ORCA GUESS
                   Start orbitals & Density for SCF / CASSCF
-------------------------------------------------------------------------------

------------
SCF SETTINGS
------------
Hamiltonian:
 Density Functional     Method          .... DFT(GTOs)
 Exchange Functional    Exchange        .... B88
   X-Alpha parameter    XAlpha          ....  0.666667
   Becke's b parameter  XBeta           ....  0.004200
 Correlation Functional Correlation     .... LYP
 LDA part of GGA corr.  LDAOpt          .... VWN-5
 Gradients option       PostSCFGGA      .... off
 Hybrid DFT is turned on
   Fraction HF Exchange ScalHFX         ....  0.200000
   Scaling of DF-GGA-X  ScalDFX         ....  0.720000
   Scaling of DF-GGA-C  ScalDFC         ....  0.810000
   Scaling of DF-LDA-C  ScalLDAC        ....  1.000000
   Perturbative correction              ....  0.000000
   NL short-range parameter             ....  4.800000
 RI-approximation to the Coulomb term is turned on
   Number of AuxJ basis functions       .... 600
   RIJ-COSX (HFX calculated with COS-X)).... on


General Settings:
 Integral files         IntName         .... orca
 Hartree-Fock type      HFTyp           .... RHF
 Total Charge           Charge          ....    0
 Multiplicity           Mult            ....    1
 Number of Electrons    NEL             ....   72
 Basis Dimension        Dim             ....  190
 Nuclear Repulsion      ENuc            ....    483.3623313059 Eh

Convergence Acceleration:
 AO-DIIS                CNVDIIS         .... on
   Start iteration      DIISMaxIt       ....    12
   Startup error        DIISStart       ....  0.200000
   # of expansion vecs  DIISMaxEq       ....     5
   Bias factor          DIISBfac        ....   1.050
   Max. coefficient     DIISMaxC        ....  10.000
 MO-DIIS                CNVKDIIS        .... off
 Trust-Rad. Augm. Hess. CNVTRAH         .... auto
   Auto Start mean grad. ratio tolernc. ....  1.125000
   Auto Start start iteration           ....    50
   Auto Start num. interpolation iter.  ....    10
   Max. Number of Micro iterations      ....    24
   Max. Number of Macro iterations      .... Maxiter - #DIIS iter
   Number of Davidson start vectors     ....     2
   Converg. threshold    (grad. norm)   ....   1.000e-05
   Grad. Scal. Fac. for Micro threshold ....   0.100
   Minimum threshold for Micro iter.    ....   1.000e-02
   NR start threshold (gradient norm)   ....   1.000e-04
   Initial trust radius                 ....   0.400
   Minimum AH scaling param. (alpha)    ....   1.000
   Maximum AH scaling param. (alpha)    .... 1000.000
   Quad. conv. algorithm                .... NR
   White noise on init. David. guess    .... on
   Maximum white noise                  ....   0.010
   Pseudo random numbers                .... off
   Inactive MOs                         .... canonical
   Orbital update algorithm             .... Taylor
   Preconditioner                       .... Diag
   Full preconditioner red. dimension   ....   250
 SOSCF                 CNVSOSCF           .... on
   Start iteration     SOSCFMaxIt         ....   150
   Startup grad/error  SOSCFStart         ....  0.003300
   Hessian update      SOSCFHessUp        .... L-BFGS
   Autom. constraints  SOSCFAutoConstrain .... off
 Level Shifting         CNVShift        .... on
   Level shift para.    LevelShift      ....    0.2500
   Turn off err/grad.   ShiftErr        ....    0.0010
 Zerner damping         CNVZerner       .... off
 Static damping         CNVDamp         .... on
   Fraction old density DampFac         ....    0.7000
   Max. Damping (<1)    DampMax         ....    0.9800
   Min. Damping (>=0)   DampMin         ....    0.0000
   Turn off err/grad.   DampErr         ....    0.1000

SCF Procedure:
 Maximum # iterations   MaxIter         ....   125
 SCF integral mode      SCFMode         .... Direct
   Integral package                     .... SHARK and LIBINT hybrid scheme
 Reset frequency        DirectResetFreq ....    20
 Integral Threshold     Thresh          ....  2.500e-11 Eh
 Primitive CutOff       TCut            ....  2.500e-12 Eh

Convergence Tolerance:
 Convergence Check Mode ConvCheckMode   .... Total+1el-Energy
 Convergence forced     ConvForced      .... 0
 Energy Change          TolE            ....  1.000e-08 Eh
 1-El. energy change                    ....  1.000e-05 Eh
 Orbital Gradient       TolG            ....  1.000e-05
 Orbital Rotation angle TolX            ....  1.000e-05
 DIIS Error             TolErr          ....  5.000e-07

------------------------------
INITIAL GUESS: MODEL POTENTIAL
------------------------------
Loading Hartree-Fock densities                     ... done
Calculating cut-offs                               ... done
Initializing the effective Hamiltonian             ... done
Setting up the integral package (SHARK)            ... done
Starting the Coulomb interaction                   ... done (   0.1 sec)
Making the grid                                    ... done (   0.2 sec)
Mapping shells                                     ... done
Starting the XC term evaluation                    ... done (   0.1 sec)
  promolecular density results
     # of electrons  =     71.996035057
     EX              =    -57.420438624
     EC              =     -2.402504165
     EX+EC           =    -59.822942790
Transforming the Hamiltonian                       ... done (   0.0 sec)
Diagonalizing the Hamiltonian                      ... done (   0.0 sec)
Back transforming the eigenvectors                 ... done (   0.0 sec)
Now organizing SCF variables                       ... done
                      ------------------
                      INITIAL GUESS DONE (   0.3 sec)
                      ------------------
             **** ENERGY FILE WAS UPDATED (orca.en.tmp) ****
Finished Guess after   0.5 sec
Maximum memory used throughout the entire GUESS-calculation: 11.0 MB


           ************************************************************
           *        Program running with 6 parallel MPI-processes     *
           *              working on a common directory               *
           ************************************************************

-------------------------------------------------------------------------------------------
                                      ORCA LEAN-SCF
                              memory conserving SCF solver
-------------------------------------------------------------------------------------------

----------------------------------------D-I-I-S--------------------------------------------
Iteration    Energy (Eh)           Delta-E    RMSDP     MaxDP     DIISErr   Damp  Time(sec)
-------------------------------------------------------------------------------------------
               ***  Starting incremental Fock matrix formation  ***
    1    -423.3878356697951517     0.00e+00  7.71e-03  6.32e-02  1.74e-01  0.700   1.7
    2    -423.4768816615002720    -8.90e-02  5.47e-03  4.11e-02  7.12e-02  0.700   1.0
                               ***Turning on AO-DIIS***
    3    -423.5159226110260420    -3.90e-02  2.41e-03  1.48e-02  3.12e-02  0.700   1.0
    4    -423.5387053082299076    -2.28e-02  4.50e-03  2.36e-02  1.64e-02  0.000   1.0
    5    -423.5875199497262997    -4.88e-02  5.63e-04  4.00e-03  4.54e-03  0.000   1.0
                              *** Initializing SOSCF ***
---------------------------------------S-O-S-C-F--------------------------------------
Iteration    Energy (Eh)           Delta-E    RMSDP     MaxDP     MaxGrad    Time(sec)
--------------------------------------------------------------------------------------
    6    -423.5877363560443314    -2.16e-04  2.23e-04  1.63e-03  9.82e-04     0.9
               *** Restarting incremental Fock matrix formation ***
    7    -423.5878404276568858    -1.04e-04  1.49e-04  8.91e-04  1.45e-04     1.7
    8    -423.5878402797559943     1.48e-07  4.74e-05  4.36e-04  2.40e-04     1.3
    9    -423.5878421398197702    -1.86e-06  3.01e-05  2.14e-04  6.20e-05     1.2
   10    -423.5878421034263397     3.64e-08  1.36e-05  1.39e-04  5.24e-05     1.1
   11    -423.5878422587352929    -1.55e-07  4.29e-06  4.05e-05  8.47e-06     1.0
   12    -423.5878422610798566    -2.34e-09  2.31e-06  2.36e-05  1.28e-05     0.9
                 **** Energy Check signals convergence ****

               *****************************************************
               *                     SUCCESS                       *
               *           SCF CONVERGED AFTER  12 CYCLES          *
               *****************************************************

Recomputing exchange energy using gridx3       ... done (    2.745 sec)
Old exchange energy                            :    -11.663941035 Eh
New exchange energy                            :    -11.663966679 Eh
Exchange energy change after final integration :     -0.000025644 Eh
Total energy after final integration           :   -423.587867907 Eh
             **** ENERGY FILE WAS UPDATED (orca.en.tmp) ****

----------------
TOTAL SCF ENERGY
----------------

Total Energy       :       -423.58786790745899 Eh          -11526.41188 eV

Components:
Nuclear Repulsion  :        483.36233130585259 Eh           13152.95772 eV
Electronic Energy  :       -906.95017356921130 Eh          -24679.36890 eV
One Electron Energy:      -1530.72120126488494 Eh          -41653.04149 eV
Two Electron Energy:        623.77102769567364 Eh           16973.67259 eV

Virial components:
Potential Energy   :       -842.85704137450853 Eh          -22935.30610 eV
Kinetic Energy     :        419.26917346704948 Eh           11408.89423 eV
Virial Ratio       :          2.01030052938235

DFT components:
N(Alpha)           :       36.000030136505 electrons
N(Beta)            :       36.000030136505 electrons
N(Total)           :       72.000060273010 electrons
E(X)               :      -46.311574496255 Eh       
E(C)               :       -2.838010656982 Eh       
E(XC)              :      -49.149585153237 Eh       

---------------
SCF CONVERGENCE
---------------

  Last Energy change         ...    2.3446e-09  Tolerance :   1.0000e-08
  Last MAX-Density change    ...    2.3567e-05  Tolerance :   1.0000e-07
  Last RMS-Density change    ...    2.3125e-06  Tolerance :   5.0000e-09
  Last DIIS Error            ...    9.8227e-04  Tolerance :   5.0000e-07
  Last Orbital Gradient      ...    1.2812e-05  Tolerance :   1.0000e-05
  Last Orbital Rotation      ...    1.9217e-05  Tolerance :   1.0000e-05


----------------
ORBITAL ENERGIES
----------------

  NO   OCC          E(Eh)            E(eV) 
   0   2.0000     -19.141371      -520.8632 
   1   2.0000     -10.241414      -278.6831 
   2   2.0000     -10.238007      -278.5903 
   3   2.0000     -10.194591      -277.4089 
   4   2.0000     -10.191346      -277.3206 
   5   2.0000     -10.185735      -277.1679 
   6   2.0000     -10.184817      -277.1430 
   7   2.0000     -10.184444      -277.1328 
   8   2.0000     -10.184067      -277.1226 
   9   2.0000     -10.180051      -277.0133 
  10   2.0000      -1.067832       -29.0572 
  11   2.0000      -0.845117       -22.9968 
  12   2.0000      -0.774426       -21.0732 
  13   2.0000      -0.731150       -19.8956 
  14   2.0000      -0.703750       -19.1500 
  15   2.0000      -0.651019       -17.7151 
  16   2.0000      -0.603595       -16.4246 
  17   2.0000      -0.593925       -16.1615 
  18   2.0000      -0.570582       -15.5263 
  19   2.0000      -0.515114       -14.0170 
  20   2.0000      -0.496304       -13.5051 
  21   2.0000      -0.477123       -12.9832 
  22   2.0000      -0.457030       -12.4364 
  23   2.0000      -0.444248       -12.0886 
  24   2.0000      -0.419797       -11.4232 
  25   2.0000      -0.412145       -11.2150 
  26   2.0000      -0.406412       -11.0590 
  27   2.0000      -0.382909       -10.4195 
  28   2.0000      -0.374226       -10.1832 
  29   2.0000      -0.353789        -9.6271 
  30   2.0000      -0.347931        -9.4677 
  31   2.0000      -0.335643        -9.1333 
  32   2.0000      -0.303131        -8.2486 
  33   2.0000      -0.272223        -7.4076 
  34   2.0000      -0.250103        -6.8057 
  35   2.0000      -0.242580        -6.6009 
  36   0.0000      -0.006526        -0.1776 
  37   0.0000      -0.003387        -0.0922 
  38   0.0000       0.065680         1.7872 
  39   0.0000       0.074591         2.0297 
  40   0.0000       0.085953         2.3389 
  41   0.0000       0.090090         2.4515 
  42   0.0000       0.107439         2.9236 
  43   0.0000       0.111451         3.0327 
  44   0.0000       0.128475         3.4960 
  45   0.0000       0.133563         3.6344 
  46   0.0000       0.137216         3.7338 
*Only the first 10 virtual orbitals were printed.

                    ********************************
                    * MULLIKEN POPULATION ANALYSIS *
                    ********************************

-----------------------
MULLIKEN ATOMIC CHARGES
-----------------------
   0 C :   -0.052547
   1 C :   -0.019203
   2 C :    0.021349
   3 C :    0.020794
   4 C :    0.023161
   5 C :   -0.002283
   6 O :   -0.331294
   7 C :    0.219774
   8 C :    0.006050
   9 C :    0.164662
  10 H :   -0.034036
  11 H :   -0.020593
  12 H :   -0.018900
  13 H :   -0.018008
  14 H :   -0.009135
  15 H :   -0.002564
  16 H :    0.014137
  17 H :    0.025432
  18 H :    0.019372
  19 H :   -0.006169
Sum of atomic charges:    0.0000000

--------------------------------
MULLIKEN REDUCED ORBITAL CHARGES
--------------------------------
  0 C s       :     3.073546  s :     3.073546
      pz      :     0.979337  p :     2.936832
      px      :     0.970129
      py      :     0.987366
      dz2     :     0.003355  d :     0.042169
      dxz     :     0.005898
      dyz     :     0.006306
      dx2y2   :     0.013166
      dxy     :     0.013444

  1 C s       :     3.215314  s :     3.215314
      pz      :     1.003417  p :     2.769618
      px      :     0.943064
      py      :     0.823137
      dz2     :     0.002879  d :     0.034270
      dxz     :     0.006207
      dyz     :     0.002539
      dx2y2   :     0.012214
      dxy     :     0.010430

  2 C s       :     3.161746  s :     3.161746
      pz      :     0.983811  p :     2.782049
      px      :     0.890843
      py      :     0.907395
      dz2     :     0.002642  d :     0.034856
      dxz     :     0.004002
      dyz     :     0.005140
      dx2y2   :     0.010404
      dxy     :     0.012667

  3 C s       :     3.158668  s :     3.158668
      pz      :     0.987141  p :     2.785784
      px      :     0.855091
      py      :     0.943552
      dz2     :     0.002565  d :     0.034753
      dxz     :     0.003044
      dyz     :     0.005949
      dx2y2   :     0.011664
      dxy     :     0.011531

  4 C s       :     3.161820  s :     3.161820
      pz      :     0.983991  p :     2.780084
      px      :     0.956953
      py      :     0.839140
      dz2     :     0.002844  d :     0.034936
      dxz     :     0.006282
      dyz     :     0.002654
      dx2y2   :     0.012595
      dxy     :     0.010561

  5 C s       :     3.221918  s :     3.221918
      pz      :     0.976183  p :     2.746410
      px      :     0.841056
      py      :     0.929171
      dz2     :     0.002651  d :     0.033955
      dxz     :     0.003924
      dyz     :     0.004838
      dx2y2   :     0.010566
      dxy     :     0.011976

  6 O s       :     3.856637  s :     3.856637
      pz      :     1.830814  p :     4.455089
      px      :     1.347832
      py      :     1.276444
      dz2     :     0.002300  d :     0.019568
      dxz     :     0.000996
      dyz     :     0.003536
      dx2y2   :     0.005545
      dxy     :     0.007191

  7 C s       :     2.895212  s :     2.895212
      pz      :     0.981030  p :     2.850204
      px      :     0.928120
      py      :     0.941054
      dz2     :     0.007867  d :     0.034810
      dxz     :     0.008879
      dyz     :     0.003135
      dx2y2   :     0.009882
      dxy     :     0.005047

  8 C s       :     3.166365  s :     3.166365
      pz      :     1.025093  p :     2.755517
      px      :     0.946113
      py      :     0.784311
      dz2     :     0.013890  d :     0.072069
      dxz     :     0.010307
      dyz     :     0.013648
      dx2y2   :     0.019730
      dxy     :     0.014495

  9 C s       :     3.036773  s :     3.036773
      pz      :     0.973578  p :     2.736275
      px      :     0.919866
      py      :     0.842831
      dz2     :     0.010760  d :     0.062290
      dxz     :     0.014194
      dyz     :     0.008069
      dx2y2   :     0.012654
      dxy     :     0.016614

 10 H s       :     1.011323  s :     1.011323
      pz      :     0.004756  p :     0.022713
      px      :     0.003587
      py      :     0.014370

 11 H s       :     0.997865  s :     0.997865
      pz      :     0.004904  p :     0.022727
      px      :     0.010045
      py      :     0.007778

 12 H s       :     0.996199  s :     0.996199
      pz      :     0.005001  p :     0.022701
      px      :     0.012882
      py      :     0.004817

 13 H s       :     0.995339  s :     0.995339
      pz      :     0.004574  p :     0.022668
      px      :     0.003614
      py      :     0.014481

 14 H s       :     0.985748  s :     0.985748
      pz      :     0.004680  p :     0.023387
      px      :     0.010965
      py      :     0.007741

 15 H s       :     0.979836  s :     0.979836
      pz      :     0.012493  p :     0.022728
      px      :     0.004736
      py      :     0.005499

 16 H s       :     0.965166  s :     0.965166
      pz      :     0.013554  p :     0.020697
      px      :     0.003729
      py      :     0.003415

 17 H s       :     0.952763  s :     0.952763
      pz      :     0.008902  p :     0.021805
      px      :     0.009185
      py      :     0.003718

 18 H s       :     0.958827  s :     0.958827
      pz      :     0.013730  p :     0.021801
      px      :     0.004244
      py      :     0.003827

 19 H s       :     0.983532  s :     0.983532
      pz      :     0.004591  p :     0.022637
      px      :     0.004040
      py      :     0.014006



                     *******************************
                     * LOEWDIN POPULATION ANALYSIS *
                     *******************************

----------------------
LOEWDIN ATOMIC CHARGES
----------------------
   0 C :   -0.026133
   1 C :   -0.033109
   2 C :   -0.025971
   3 C :   -0.029930
   4 C :   -0.022578
   5 C :   -0.019848
   6 O :   -0.185841
   7 C :   -0.026712
   8 C :    0.059580
   9 C :    0.068350
  10 H :    0.021646
  11 H :    0.025725
  12 H :    0.025410
  13 H :    0.026666
  14 H :    0.028879
  15 H :    0.036085
  16 H :    0.016805
  17 H :    0.016181
  18 H :    0.013649
  19 H :    0.031147

-------------------------------
LOEWDIN REDUCED ORBITAL CHARGES
-------------------------------
  0 C s       :     2.857617  s :     2.857617
      pz      :     0.959650  p :     3.062693
      px      :     1.027350
      py      :     1.075693
      dz2     :     0.007728  d :     0.105823
      dxz     :     0.011175
      dyz     :     0.013652
      dx2y2   :     0.036432
      dxy     :     0.036836

  1 C s       :     2.863437  s :     2.863437
      pz      :     0.989860  p :     3.079726
      px      :     1.058184
      py      :     1.031682
      dz2     :     0.006712  d :     0.089945
      dxz     :     0.013803
      dyz     :     0.004797
      dx2y2   :     0.034795
      dxy     :     0.029838

  2 C s       :     2.862750  s :     2.862750
      pz      :     0.971546  p :     3.072986
      px      :     1.045063
      py      :     1.056378
      dz2     :     0.006323  d :     0.090235
      dxz     :     0.008387
      dyz     :     0.010902
      dx2y2   :     0.029748
      dxy     :     0.034875

  3 C s       :     2.862948  s :     2.862948
      pz      :     0.975969  p :     3.077047
      px      :     1.037628
      py      :     1.063450
      dz2     :     0.006168  d :     0.089936
      dxz     :     0.005904
      dyz     :     0.012896
      dx2y2   :     0.032657
      dxy     :     0.032311

  4 C s       :     2.862862  s :     2.862862
      pz      :     0.967779  p :     3.069268
      px      :     1.064814
      py      :     1.036675
      dz2     :     0.006692  d :     0.090448
      dxz     :     0.013982
      dyz     :     0.004922
      dx2y2   :     0.034706
      dxy     :     0.030148

  5 C s       :     2.862878  s :     2.862878
      pz      :     0.970823  p :     3.068135
      px      :     1.046986
      py      :     1.050326
      dz2     :     0.006281  d :     0.088835
      dxz     :     0.008102
      dyz     :     0.010229
      dx2y2   :     0.030143
      dxy     :     0.034079

  6 O s       :     3.556079  s :     3.556079
      pz      :     1.827271  p :     4.596937
      px      :     1.385419
      py      :     1.384247
      dz2     :     0.004772  d :     0.032825
      dxz     :     0.001706
      dyz     :     0.004415
      dx2y2   :     0.010301
      dxy     :     0.011630

  7 C s       :     2.835723  s :     2.835723
      pz      :     1.043972  p :     3.101102
      px      :     1.015773
      py      :     1.041357
      dz2     :     0.020041  d :     0.089887
      dxz     :     0.023134
      dyz     :     0.007441
      dx2y2   :     0.026343
      dxy     :     0.012929

  8 C s       :     2.854844  s :     2.854844
      pz      :     1.058637  p :     2.926375
      px      :     1.019692
      py      :     0.848046
      dz2     :     0.030596  d :     0.159201
      dxz     :     0.025805
      dyz     :     0.029684
      dx2y2   :     0.043917
      dxy     :     0.029198

  9 C s       :     2.854570  s :     2.854570
      pz      :     1.059172  p :     2.938165
      px      :     0.980391
      py      :     0.898603
      dz2     :     0.024409  d :     0.138914
      dxz     :     0.034900
      dyz     :     0.016090
      dx2y2   :     0.028586
      dxy     :     0.034929

 10 H s       :     0.911676  s :     0.911676
      pz      :     0.014461  p :     0.066679
      px      :     0.011392
      py      :     0.040826

 11 H s       :     0.907913  s :     0.907913
      pz      :     0.014648  p :     0.066363
      px      :     0.028821
      py      :     0.022894

 12 H s       :     0.908067  s :     0.908067
      pz      :     0.014967  p :     0.066523
      px      :     0.036573
      py      :     0.014983

 13 H s       :     0.907029  s :     0.907029
      pz      :     0.013864  p :     0.066306
      px      :     0.011557
      py      :     0.040884

 14 H s       :     0.901831  s :     0.901831
      pz      :     0.014388  p :     0.069291
      px      :     0.031607
      py      :     0.023296

 15 H s       :     0.898861  s :     0.898861
      pz      :     0.036108  p :     0.065053
      px      :     0.014825
      py      :     0.014120

 16 H s       :     0.916494  s :     0.916494
      pz      :     0.041187  p :     0.066701
      px      :     0.012680
      py      :     0.012834

 17 H s       :     0.917115  s :     0.917115
      pz      :     0.026801  p :     0.066704
      px      :     0.027569
      py      :     0.012335

 18 H s       :     0.919586  s :     0.919586
      pz      :     0.041213  p :     0.066765
      px      :     0.012887
      py      :     0.012665

 19 H s       :     0.904316  s :     0.904316
      pz      :     0.012141  p :     0.064537
      px      :     0.012107
      py      :     0.040289



                      *****************************
                      * MAYER POPULATION ANALYSIS *
                      *****************************

  NA   - Mulliken gross atomic population
  ZA   - Total nuclear charge
  QA   - Mulliken gross atomic charge
  VA   - Mayer's total valence
  BVA  - Mayer's bonded valence
  FA   - Mayer's free valence

  ATOM       NA         ZA         QA         VA         BVA        FA
  0 C      6.0525     6.0000    -0.0525     3.9918     3.9918     0.0000
  1 C      6.0192     6.0000    -0.0192     3.8525     3.8525     0.0000
  2 C      5.9787     6.0000     0.0213     3.8431     3.8431     0.0000
  3 C      5.9792     6.0000     0.0208     3.8291     3.8291    -0.0000
  4 C      5.9768     6.0000     0.0232     3.8331     3.8331     0.0000
  5 C      6.0023     6.0000    -0.0023     3.8266     3.8266     0.0000
  6 O      8.3313     8.0000    -0.3313     2.0286     2.0286     0.0000
  7 C      5.7802     6.0000     0.2198     3.8570     3.8570     0.0000
  8 C      5.9940     6.0000     0.0060     4.1174     4.1174     0.0000
  9 C      5.8353     6.0000     0.1647     3.9598     3.9598    -0.0000
 10 H      1.0340     1.0000    -0.0340     0.9848     0.9848    -0.0000
 11 H      1.0206     1.0000    -0.0206     0.9768     0.9768     0.0000
 12 H      1.0189     1.0000    -0.0189     0.9772     0.9772     0.0000
 13 H      1.0180     1.0000    -0.0180     0.9774     0.9774     0.0000
 14 H      1.0091     1.0000    -0.0091     1.0099     1.0099     0.0000
 15 H      1.0026     1.0000    -0.0026     0.9961     0.9961     0.0000
 16 H      0.9859     1.0000     0.0141     0.9824     0.9824    -0.0000
 17 H      0.9746     1.0000     0.0254     0.9732     0.9732    -0.0000
 18 H      0.9806     1.0000     0.0194     0.9801     0.9801    -0.0000
 19 H      1.0062     1.0000    -0.0062     0.9882     0.9882    -0.0000

  Mayer bond orders larger than 0.100000
B(  0-C ,  1-C ) :   1.4010 B(  0-C ,  5-C ) :   1.3862 B(  0-C ,  7-C ) :   1.0458 
B(  1-C ,  2-C ) :   1.3752 B(  1-C , 10-H ) :   0.9831 B(  2-C ,  3-C ) :   1.3932 
B(  2-C , 11-H ) :   0.9820 B(  3-C ,  4-C ) :   1.3739 B(  3-C , 12-H ) :   0.9849 
B(  4-C ,  5-C ) :   1.3862 B(  4-C , 13-H ) :   0.9838 B(  5-C , 14-H ) :   0.9839 
B(  6-O ,  8-C ) :   0.9292 B(  6-O ,  9-C ) :   0.9964 B(  7-C ,  8-C ) :   1.0404 
B(  7-C , 15-H ) :   0.8949 B(  7-C , 19-H ) :   0.9159 B(  8-C ,  9-C ) :   1.0716 
B(  8-C , 16-H ) :   0.9444 B(  9-C , 17-H ) :   0.9438 B(  9-C , 18-H ) :   0.9349 


-------
TIMINGS
-------

Total SCF time: 0 days 0 hours 0 min 17 sec 

Total time                  ....      17.670 sec
Sum of individual times     ....      16.742 sec  ( 94.7%)

SCF preparation             ....       0.207 sec  (  1.2%)
Fock matrix formation       ....      16.121 sec  ( 91.2%)
  Startup                   ....       0.007 sec  (  0.0% of F)
  Split-RI-J                ....       1.577 sec  (  9.8% of F)
  Chain of spheres X        ....      12.572 sec  ( 78.0% of F)
  XC integration            ....       2.651 sec  ( 16.4% of F)
    XC Preparation          ....       0.000 sec  (  0.0% of XC)
    Basis function eval.    ....       0.758 sec  ( 28.6% of XC)
    Density eval.           ....       0.468 sec  ( 17.6% of XC)
    XC-Functional eval.     ....       0.117 sec  (  4.4% of XC)
    XC-Potential eval.      ....       0.518 sec  ( 19.5% of XC)
Diagonalization             ....       0.000 sec  (  0.0%)
Density matrix formation    ....       0.049 sec  (  0.3%)
Total Energy calculation    ....       0.031 sec  (  0.2%)
Population analysis         ....       0.030 sec  (  0.2%)
Orbital Transformation      ....       0.032 sec  (  0.2%)
Orbital Orthonormalization  ....       0.000 sec  (  0.0%)
DIIS solution               ....       0.174 sec  (  1.0%)
SOSCF solution              ....       0.098 sec  (  0.6%)
Finished LeanSCF after  17.7 sec

Maximum memory used throughout the entire LEANSCF-calculation: 17.2 MB


-------------------------------------------------------------------------------
                          DFT DISPERSION CORRECTION                            
                                                                               
                              DFTD3 V3.1  Rev 1                                
                          USING Becke-Johnson damping                          
-------------------------------------------------------------------------------
The B3LYP functional is recognized
Active option DFTDOPT                   ...         4   

molecular C6(AA) [au] = 4050.689484 


            DFT-D V3
 parameters
 s6 scaling factor         :     1.0000 
 a1 scaling factor         :     0.3981 
 s8 scaling factor         :     1.9889 
 a2 scaling factor         :     4.4211 
 ad hoc parameters k1-k3   :    16.0000     1.3333    -4.0000 

 Edisp/kcal,au: -21.371296606388  -0.034057325363 
 E6   /kcal   : -10.063851417 
 E8   /kcal   : -11.307445189 
 % E8         :  52.909495375 

-------------------------   ----------------
Dispersion correction           -0.034057325
-------------------------   ----------------


-------------------------   --------------------
FINAL SINGLE POINT ENERGY      -423.621925232822
-------------------------   --------------------



           ************************************************************
           *        Program running with 6 parallel MPI-processes     *
           *              working on a common directory               *
           ************************************************************
------------------------------------------------------------------------------
                         ORCA SCF GRADIENT CALCULATION
------------------------------------------------------------------------------

Nuc. rep. gradient        (SHARK) ... done (  0.0 sec)
HCore & Overlap gradient  (SHARK) ... done (  0.1 sec)
Split-RIJ-J gradient      (SHARK) ... done (  0.5 sec)
done (  8.8 sec)
XC gradient                       ... done (  1.4 sec)
Dispersion correction             ... done (  0.0 sec)

-------------------
DISPERSION GRADIENT
-------------------

   1   C   :    0.000218450    0.000111867    0.000121538
   2   C   :    0.000387451    0.000280597    0.000010171
   3   C   :    0.000375567    0.000156812   -0.000055269
   4   C   :    0.000319974   -0.000120891   -0.000048461
   5   C   :    0.000242956   -0.000369427   -0.000009040
   6   C   :    0.000361519   -0.000398283    0.000096827
   7   O   :   -0.000484611   -0.000198814   -0.000140575
   8   C   :   -0.000207885    0.000268244    0.000174792
   9   C   :   -0.000492246    0.000098868   -0.000162047
  10   C   :   -0.000528175   -0.000040572   -0.000080639
  11   H   :    0.000108838    0.000319325   -0.000002434
  12   H   :    0.000223280    0.000169317   -0.000041102
  13   H   :    0.000254138   -0.000100556   -0.000045628
  14   H   :    0.000061581   -0.000281491   -0.000006032
  15   H   :    0.000003682   -0.000363974    0.000074562
  16   H   :   -0.000129215    0.000118137    0.000290675
  17   H   :   -0.000204899    0.000080776   -0.000302502
  18   H   :   -0.000192588   -0.000012513   -0.000053620
  19   H   :   -0.000258131   -0.000021269    0.000073307
  20   H   :   -0.000059687    0.000303847    0.000105475

Difference to translation invariance:
           :   -0.0000000000   -0.0000000000    0.0000000000

Difference to rotation invariance:
           :    0.0000000000    0.0000000000   -0.0000000000

Norm of the Dispersion gradient    ...    0.0017487958
RMS gradient                       ...    0.0002257686
MAX gradient                       ...    0.0005281747

------------------
CARTESIAN GRADIENT
------------------

   1   C   :   -0.000004989    0.000089218   -0.000110133
   2   C   :   -0.000034083   -0.000093851    0.000078840
   3   C   :    0.000132432    0.000080345    0.000069314
   4   C   :    0.000064419   -0.000077091    0.000064797
   5   C   :    0.000014826    0.000113788   -0.000040351
   6   C   :   -0.000094209   -0.000046118   -0.000088927
   7   O   :   -0.000187605   -0.000081779   -0.000175167
   8   C   :   -0.000052976    0.000032553   -0.000064653
   9   C   :   -0.000002112    0.000017746    0.000104566
  10   C   :   -0.000040186   -0.000022241   -0.000015051
  11   H   :   -0.000015024    0.000071865   -0.000037991
  12   H   :    0.000028701    0.000011072   -0.000024036
  13   H   :    0.000020212   -0.000023955   -0.000005676
  14   H   :    0.000003108   -0.000069195    0.000059257
  15   H   :    0.000036277    0.000014410    0.000021602
  16   H   :    0.000083161   -0.000056968    0.000074654
  17   H   :   -0.000027138    0.000014460   -0.000021288
  18   H   :    0.000014119   -0.000026648    0.000085378
  19   H   :    0.000029557    0.000043234    0.000046646
  20   H   :    0.000031511    0.000009153   -0.000021780

Difference to translation invariance:
           :    0.0000000000   -0.0000000000   -0.0000000000

Difference to rotation invariance:
           :    0.0000936763    0.0002298810   -0.0000714904

Norm of the Cartesian gradient     ...    0.0005086948
RMS gradient                       ...    0.0000656722
MAX gradient                       ...    0.0001876055

-------
TIMINGS
-------

Total SCF gradient time     ....       10.899 sec

Densities                   ....       0.001 sec  (  0.0%)
One electron gradient       ....       0.093 sec  (  0.9%)
RI-J Coulomb gradient       ....       0.496 sec  (  4.6%)
COSX gradient               ....       8.832 sec  ( 81.0%)
XC gradient                 ....       1.443 sec  ( 13.2%)

Maximum memory used throughout the entire SCFGRAD-calculation: 31.0 MB


           ************************************************************
           *        Program running with 6 parallel MPI-processes     *
           *              working on a common directory               *
           ************************************************************

------------------------------------------------------------------------------
                              ORCA PROPERTY CALCULATIONS
------------------------------------------------------------------------------

GBWName                                 ... orca.gbw
Number of atoms                         ...     20
Number of basis functions               ...    190
Max core memory                         ...   4096 MB

Electric properties:
Dipole moment                           ... YES
Quadrupole moment                       ...  NO
Static polarizability (Dipole/Dipole)   ...  NO
Static polarizability (Dipole/Quad.)    ...  NO
Static polarizability (Quad./Quad.)     ...  NO
Static polarizability (Velocity)        ...  NO
Static hyperpolarizability              ...  NO

Atomic electric properties:
Dipole moment                           ...  NO
Quadrupole moment                       ...  NO
Static polarizability                   ...  NO

Choice of electric origin               ... Center of mass
Position of electric origin             ...     0.028715     0.016172    -0.147015

General magnetic properties:
Magnetizability                         ...  NO

EPR properties:
g-Tensor (aka g-matrix)                 ...  NO
Zero-Field splitting spin-orbit         ...  NO
Zero-field splitting spin-spin          ...  NO
Hyperfine couplings                     ...  NO (   0 nuclei)
Quadrupole couplings                    ...  NO (   0 nuclei)
Contact density                         ...  NO (   0 nuclei)

NMR properties:
Chemical shifts                         ...  NO (   0 nuclei)
Spin-rotation constants                 ...  NO (   0 nuclei)
Spin-spin couplings                     ...  NO (   0 nuclei,    0 pairs)

Choice of magnetic origin               ... GIAO
Position of magnetic origin             ...     0.000000     0.000000     0.000000

Properties with geometric perturbations:
SCF Hessian                             ...  NO
IR spectrum                             ...  NO
VCD spectrum                            ...  NO
X-ray spectroscopy properties:
SCF XES/XAS/RIXS spectra                ...  NO

SCF SOC stabilization energy            ...  NO
Diagonal Born-Oppenheimer correction    ...  NO

-------------
DIPOLE MOMENT
-------------

Method             : SCF
Type of density    : Electron Density
Multiplicity       :   1
Irrep              :   0
Energy             :  -423.5878679074589854 Eh
Basis              : AO
                                X                 Y                 Z
Electronic contribution:      1.300695595      -1.772895246      -0.488827067
Nuclear contribution   :     -1.490114137       2.448257239       0.555056791
                        -----------------------------------------
Total Dipole Moment    :     -0.189418542       0.675361993       0.066229724
                        -----------------------------------------
Magnitude (a.u.)       :      0.704542108
Magnitude (Debye)      :      1.790803720



--------------------
Rotational spectrum 
--------------------
 
Rotational constants in cm-1:             0.123144             0.025300             0.021900 
Rotational constants in MHz :          3691.770498           758.483786           656.535907 

Dipole components along the rotational axes: 
x,y,z [a.u.] :     0.213411    -0.671194    -0.018293 
x,y,z [Debye]:     0.542447    -1.706039    -0.046497 

 

Dipole moment calculation done in   0.0 sec 

Maximum memory used throughout the entire PROP-calculation: 9.4 MB

--------------------------------
SUGGESTED CITATIONS FOR THIS RUN
--------------------------------

Below you find a list of papers that are relevant to this ORCA run
We neither can nor want to force you to cite these papers, but we appreciate if you do
You receive ORCA, which is the product of decades of hard work by many enthusiastic individuals, for free
The only thing we kindly ask in return is that you cite our papers,
We deeply appreciate it, if you show your appreciation for ORCA by not just citing the generic ORCA reference.

Please note that relegating all ORCA citations to the supporting information does *not* help us.
SI sections are not indexed - citations you put there will not count into any citation statistics
But we need these citations in order to attract the funding resources that allow us to do what we are doing

Therefore, if you are a happy ORCA user, please consider citing a few of the papers listed below in the main body of your paper

In addition to the list printed below, the program has created the file orca.bibtex that contains the list in bibtex format
You can import this file easily into all common literature databanks and citation aid programs


List of essential papers. We consider these as the minimum necessary citations

  1. Neese, F.
     Software update: the ORCA program system, version 6.0
     WIRES Comput. Molec. Sci. 2025 15(1), e70019
     doi.org/10.1002/wcms.7019

List of papers to cite with high priority. The work reported in these papers was absolutely
necessary for this run to complete.
Our perspective: the developers of density functionals and basis sets usually get cited in chemistry papers
Good! But without the algorithms to do something with them, the functionals or basis sets would not do anything.
Hence, in our opinion, the algorithm design and method developments papers are equally worthy of getting cited

  1. Neese, F.
     An improvement of the resolution of the identity approximation for the formation of the Coulomb matrix
     J. Comp. Chem. 2003 24(14), 1740-1747
     doi.org/10.1002/jcc.10318
  2. Neese, F.; Wennmohs, F.; Hansen, A.; Becker, U.
     Efficient, approximate and parallel Hartree-Fock and hybrid DFT calculations. A 'chain-of-spheres' algorithm for the Hartree-Fock exchange
     Chem. Phys. 2009 356(1-3), 98-109
     doi.org/10.1016/j.chemphys.2008.10.036
  3. Grimme, S.; Antony, J.; Ehrlich, S.; Krieg, H.
     A consistent and accurate ab initio parametrization of density functional dispersion correction (DFT-D) for the 94 elements H-Pu
     J. Chem. Phys. 2010 132 , 154104
     doi.org/10.1063/1.3382344
  4. Grimme, S.; Ehrlich, S.; Goerigk, L.
     Effect of the damping function in dispersion corrected density functional theory
     J. Comput. Chem. 2011 32(7), 1456-1465
     doi.org/10.1002/jcc.21759
  5. Helmich-Paris, B.; de Souza, B.; Neese, F.; Izsák, R.
     An improved chain of spheres for exchange algorithm
     J. Chem. Phys. 2021 155(10), 104109
     doi.org/10.1063/5.0058766
  6. Neese, F.
     The SHARK Integral Generation and Digestion System
     J. Comp. Chem. 2022 44(3), 381
     doi.org/10.1002/jcc.26942

List of suggested additional citations. These are papers that are important in the 'surrounding' of 
of this run, or papers that preceded the highly important papers. If you like your results we are grateful for a citation.

  1. Izsak, R.; Neese, F.
     An overlap fitted chain of spheres exchange method
     J. Chem. Phys. 2011 135 , 144105
     doi.org/10.1063/1.3646921
  2. Izsak, R.; Hansen, A.; Neese, F.
     The resolution of identity and chain of spheres approximations for the LPNO-CCSD singles Fock term
     Molec. Phys. 2012 110 , 2413-2417
     doi.org/10.1080/00268976.2012.687466
  3. Neese, F.
     The ORCA program system
     WIRES Comput. Molec. Sci. 2012 2(1), 73-78
     doi.org/10.1002/wcms.81
  4. Izsak, R.; Neese, F.; Klopper, W.
     Robust fitting techniques in the chain of spheres approximation to the Fock exchange: The role of the complementary space
     J. Chem. Phys. 2013 139 , 
     doi.org/10.1063/1.4819264
  5. Neese, F.
     Software update: the ORCA program system, version 4.0
     WIRES Comput. Molec. Sci. 2018 8(1), 1-6
     doi.org/10.1002/wcms.1327
  6. Neese, F.; Wennmohs, F.; Becker, U.; Riplinger, C.
     The ORCA quantum chemistry program package
     J. Chem. Phys. 2020 152(22), 224108
     doi.org/10.1063/5.0004608
  7. Neese, F.
     Software update: The ORCA program system—Version 5.0
     WIRES Comput. Molec. Sci. 2022 12(1), e1606
     doi.org/10.1002/wcms.1606

List of optional additional citations

  1. Neese, F.
     Approximate second-order SCF convergence for spin unrestricted wavefunctions
     Chem. Phys. Lett. 2000 325(1-3), 93-98
     doi.org/10.1016/s0009-2614(00)00662-x

Timings for individual modules:

Sum of individual times          ...       32.789 sec (=   0.546 min)
Startup calculation              ...        2.082 sec (=   0.035 min)   6.3 %
SCF iterations                   ...       18.859 sec (=   0.314 min)  57.5 %
Property calculations            ...        0.462 sec (=   0.008 min)   1.4 %
SCF Gradient evaluation          ...       11.386 sec (=   0.190 min)  34.7 %
                             ****ORCA TERMINATED NORMALLY****
TOTAL RUN TIME: 0 days 0 hours 0 minutes 33 seconds 371 msec
