
                                 *****************
                                 * O   R   C   A *
                                 *****************

                                            #,                                       
                                            ###                                      
                                            ####                                     
                                            #####                                    
                                            ######                                   
                                           ########,                                 
                                     ,,################,,,,,                         
                               ,,#################################,,                 
                          ,,##########################################,,             
                       ,#########################################, ''#####,          
                    ,#############################################,,   '####,        
                  ,##################################################,,,,####,       
                ,###########''''           ''''###############################       
              ,#####''   ,,,,##########,,,,          '''####'''          '####       
            ,##' ,,,,###########################,,,                        '##       
           ' ,,###''''                  '''############,,,                           
         ,,##''                                '''############,,,,        ,,,,,,###''
      ,#''                                            '''#######################'''  
     '                                                          ''''####''''         
             ,#######,   #######,   ,#######,      ##                                
            ,#'     '#,  ##    ##  ,#'     '#,    #''#        ,####,    ,#,          
            ##       ##  ##   ,#'  ##            #'  '#       #'       ,# #          
            ##       ##  #######   ##           ,######,      #####,      #          
            '#,     ,#'  ##    ##  '#,     ,#' ,#      #,     #,   #      #          
             '#######'   ##     ##  '#######'  #'      '#     '####' #    #          



                #########################################################
                #                        -***-                          #
                #          Department of theory and spectroscopy        #
                #                                                       #
                #                      Frank Neese                      #
                #                                                       #
                #     Directorship, Architecture, Infrastructure        #
                #                    SHARK, DRIVERS                     #
                #        Core code/Algorithms in most modules           #
                #                                                       #
                #        Max Planck Institute fuer Kohlenforschung      #
                #                Kaiser Wilhelm Platz 1                 #
                #                 D-45470 Muelheim/Ruhr                 #
                #                      Germany                          #
                #                                                       #
                #                  All rights reserved                  #
                #                        -***-                          #
                #########################################################


                         Program Version 6.1.0  -  RELEASE   -
                                (GIT: $679e74b$)
                          ($2025-06-10 18:02:51 +0200$)


 With contributions from (in alphabetic order):
[Max-Planck-Institut fuer Kohlenforschung]                               
  Daniel Aravena         : Magnetic Suceptibility                        
  Michael Atanasov       : Ab Initio Ligand Field Theory (pilot matlab implementation)
  Alexander A. Auer      : GIAO ZORA, VPT2 properties, NMR spectrum      
  Ute Becker             : All parallelization in ORCA, NUMFREQ, NUMCALC 
  Giovanni Bistoni       : ED, misc. LED, open-shell LED, HFLD           
  Dmytro Bykov           : pre 5.0 version of the SCF Hessian            
  Marcos Casanova-Páez   : Triplet and SCS-CIS(D). UHF-(DLPNO)-IP/EA/STEOM-CCSD. UHF-CVS-IP/STEOM-CCSD   
  Vijay G. Chilkuri      : MRCI spin determinant printing, contributions to CSF-ICE 
  Pauline Colinet        : FMM embedding                                 
  Dipayan Datta          : RHF DLPNO-CCSD density                        
  Achintya Kumar Dutta   : EOM-CC, STEOM-CC                              
  Nicolas Foglia         : Exact transition moments, OPA infrastructure, MCD improvements    
  Dmitry Ganyushin       : Spin-Orbit,Spin-Spin,Magnetic field MRCI      
  Miquel Garcia-Rates    : C-PCM and meta-GGA Hessian, CCSD/C-PCM, Gaussian charge scheme 
  Tiago L. C. Gouveia    : GS-ROHF, GS-ROCIS                             
  Yang Guo               : DLPNO-NEVPT2, F12-NEVPT2, CIM, IAO-localization        
  Andreas Hansen         : Spin unrestricted coupled pair/coupled cluster methods 
  Ingolf Harden          : AUTO-CI MPn and infrastructure                
  Benjamin Helmich-Paris : MC-RPA, TRAH-(SCF,CASSCF), AVAS, COSX integrals, SCF dyn. polar., MC-PDFT, srDFT 
  Lee Huntington         : MR-EOM, pCC                                   
  Robert Izsak           : Overlap fitted RIJCOSX, COSX-SCS-MP3, EOM     
  Riya Kayal             : Wick's Theorem for AUTO-CI, AUTO-CI UHF-CCSDT 
  Emily Kempfer          : AUTO-CI RHF CISDT and CCSDT, approximate NEVPT4
  Christian Kollmar      : KDIIS, OOCD, Brueckner-CCSD(T), CCSD density, CASPT2, CASPT2-K, improved NEVPT2 
  Axel Koslowski         : Symmetry handling                             
  Simone Kossmann        : meta-GGA functionals, TD-DFT gradient, OOMP2, (MP2 Hessian; deprecated post 5.0) 
  Lucas Lang             : DCDCAS, Hyperfine gauge corrections, ICE-SOC+SSC
  Marvin Lechner         : AUTO-CI (C++ implementation), FIC-MRCC        
  Spencer Leger          : CASSCF response                               
  Dagmar Lenk            : GEPOL surface, SMD, ORCA-2-JSON               
  Dimitrios Liakos       : Extrapolation schemes; Compound Job, Property file
  Dimitrios Manganas     : Further ROCIS development; embedding schemes. LFT, Crystal Embedding 
  Dimitrios Pantazis     : SARC Basis sets                               
  Anastasios Papadopoulos: AUTO-CI, single reference methods and gradients 
  Taras Petrenko         : pre 6.0 DFT Hessian and TD-DFT gradient,  ECA, NRVS 
  Petra Pikulova         : Analytic Raman intensities                    
  Peter Pinski           : DLPNO-MP2, DLPNO-MP2 Gradient                 
  Shashank Vittal Rao    : ES-AILFT, MagRelax                            
  Christoph Reimann      : Effective Core Potentials                     
  Marius Retegan         : Local ZFS, SOC                                
  Christoph Riplinger    : Optimizer, TS searches, QM/MM, DLPNO-CCSD(T), (RO)-DLPNO pert. Triples 
  Michael Roemelt        : Original ROCIS implementation, recursive CI coupling coefficients
  Masaaki Saitow         : Open-shell DLPNO-CCSD energy and density      
  Barbara Sandhoefer     : DKH picture change effects                    
  Yorick L. A. Schmerwitz: GMF and freeze-and-release deltaSCF, NEB S-IDPP initial path                    
  Kantharuban Sivalingam : CASSCF convergence/infrastructure, NEVPT2, NEVPT3, NEVPT4(SD), FIC-MRCI and CEPA variants
  Bernardo de Souza      : ESD, SOC TD-DFT                               
  Georgi L. Stoychev     : AutoAux, RI-MP2 NMR, DLPNO-MP2 response, X2C  
  Van Anh Tran           : RI-MP2 g-tensors                              
  Willem Van den Heuvel  : Paramagnetic NMR                              
  Zikuan Wang            : NOTCH, Electric field optimization            
  Frank Wennmohs         : Technical directorship and infrastructure     
  Hang Xu                : AUTO-CI-Response properties                   
                                                                         
[FACCTs GmbH]                                                            
  Markus Bursch, Nicolas Foglia, Miquel Garcia-Rates, Ingolf Harden, Hagen Neugebauer, Anastasios Papadopoulos, 
  Christoph Riplinger, Bernardo de Souza, Georgi L. Stoychev                                                    
                                                                 
  APM, various basis sets, CI-OPT, improved COSX, DLPNO-Multilevel,           
  DOCKER, DRACO, updates on ESD, Fragmentator, GOAT, IRC, LR-CPCM, L-BFGS, MBIS, meta-GGA TD-DFT gradient, ML-optimized integration grids, 
  MM, NACMEs, nearIR, NEB, NEB-TS, NL-DFT gradient (VV10), 2- and 3-layer-ONIOM, interface openCOSMO-RS, QMMM,   
  Crystal-QMMM, RESP, rigid body optimization, SF, symmetry and pop. for TD-DFT, various functionals, SOLVATOR                                   
                                                                         
[Other institutions]                                                     
  V. Asgeirsson          : NEB                                           
  Christoph Bannwarth    : sTDA-DFT, sTD-DFT, PBEh-3c, B97-3c, D3        
  Giovanni Bistoni       : ETS/NOCV, ADLD/ADEX, COVALED                  
  Martin Brehm           : Molecular dynamics                            
  Ronald Cardenas        : ETS/NOCV                                      
  Martina Colucci        : COVALED                                       
  Sebastian Ehlert       : rSCAN, r2SCAN, r2SCAN-3c, D4, dhf basis sets  
  Marvin Friede          : D4 for Fr, Ra, Ac-Lr                          
  Lars Goerigk           : TD-DFT with DH, B97 family of functionals     
  Stefan Grimme          : VdW corrections, initial TS optimization, DFT functionals, gCP, sTDA/sTD-DF 
  Waldemar Hujo          : DFT-NL                                        
  H. Jonsson             : NEB                                           
  Holger Kruse           : gCP                                           
  Marcel Mueller         : wB97X-3c, vDZP basis set                      
  Hagen Neugebauer       : wr2SCAN, Native XTB                           
  Gianluca Regni         : ADLD/ADEX                                     
  Tobias Risthaus        : pre 6.0 range-separated hybrid DFT and stability analysis
  Lukas Wittmann         : regularized MP2, r2SCAN double-hybrids, wr2SCAN        
                                                                         
We gratefully acknowledge several colleagues who have allowed us to      
interface, adapt or use parts of their codes:                            
  Ed Valeev, F. Pavosevic, A. Kumar             : LibInt (2-el integral package), F12 methods 
  Garnet Chan, S. Sharma, J. Yang, R. Olivares  : DMRG                   
  Ulf Ekstrom                                   : XCFun DFT Library      
  Mihaly Kallay                                 : mrcc  (arbitrary order and MRCC methods)
  Frank Weinhold                                : gennbo (NPA and NBO analysis)           
  Simon Mueller                                 : openCOSMO-RS                            
  Christopher J. Cramer and Donald G. Truhlar   : smd solvation model                     
  S Lehtola, MJT Oliveira, MAL Marques          : LibXC Library                           
  Liviu Ungur et al                             : ANISO software                          


 Your calculation uses the libint2 library for the computation of 2-el integrals
 For citations please refer to: http://libint.valeyev.net

 Your ORCA version has been built with support for libXC version: 7.0.0
 For citations please refer to: https://libxc.gitlab.io

 This ORCA versions uses:
   CBLAS   interface :  Fast vector & matrix operations
   LAPACKE interface :  Fast linear algebra routines
   SCALAPACK package :  Parallel linear algebra routines
   Shared memory     :  Shared parallel matrices
   BLAS/LAPACK       :  OpenBLAS 0.3.29  USE64BITINT DYNAMIC_ARCH NO_AFFINITY Zen SINGLE_THREADED
        Core in use  :  Zen
   Copyright (c) 2011-2014, The OpenBLAS Project


  ***********************************
  * Starting time: Wed Sep 10 13:33:29 2025
  * Host name:     wyk-Server
  * Process ID:    2273822
  * Working dir.:  /home/wyk/Documents/code/openQDC/MGMR/singlepointcalc/9/prod
  ***********************************

Your calculation utilizes the atom-pairwise dispersion correction
with the Becke-Johnson damping scheme (D3BJ)


Warning: RI is on but no J-basis has been assigned. Assigning Def2/J (nothing to worry about!)
================================================================================

----- Orbital basis set information -----
Your calculation utilizes the basis: def2-SVP
   F. Weigend and R. Ahlrichs, Phys. Chem. Chem. Phys. 7, 3297 (2005).

----- AuxJ basis set information -----
Your calculation utilizes the auxiliary basis: def2/J
   H-Rn: F. Weigend, Phys. Chem. Chem. Phys. 8, 1057 (2006).
   Fr-Lr: K. Eichkorn, F. Weigend, O. Treutler, R. Ahlrichs; Theor. Chem. Acc. 97, 119 (1997).

================================================================================
                                        WARNINGS
                       Please study these warnings very carefully!
================================================================================


================================================================================
                                       INPUT FILE
================================================================================
NAME = orca.inp
|  1> ! B3LYP def2-SVP d3 EnGrad 
|  2> %pal nprocs 6 end 
|  3> *xyz 0 1 
|  4> N   -2.22819602762225 -0.16980727100525 0.16240851642883
|  5> B   1.26520564030027 -0.15047492972294 -1.02502380171103
|  6> B   1.24613599425639 0.99609198173983 0.51198126778765
|  7> N   0.65039148929501 -0.42579426113696 0.36847565668583
|  8> H   -2.40906032765756 0.76435730262471 0.53498401554494
|  9> H   -2.95577453619301 -0.78260626043122 0.53413775786355
| 10> H   -2.37749725866575 -0.11017209339095 -0.84679645626838
| 11> H   2.26381956806189 -0.7811469329736 -1.28046792703967
| 12> H   0.44880604441088 0.05293875034191 -1.89522357516183
| 13> H   1.74347898491904 1.09033790519248 -0.74812413764933
| 14> H   2.23226237837039 1.07388411940033 1.2058629240166
| 15> H   0.41753829668876 1.87748892643775 0.55272800162045
| 16> H   -0.38666727803731 -0.47664689182593 0.39452464469391
| 17> H   1.09498803187321 -1.15502234525019 0.91764011318848
| 18> *
| 19> 
| 20>                          ****END OF INPUT****
================================================================================

                     *******************************
                     * Energy+Gradient Calculation *
                     *******************************

---------------------------------
CARTESIAN COORDINATES (ANGSTROEM)
---------------------------------
  N     -2.228196   -0.169807    0.162409
  B      1.265206   -0.150475   -1.025024
  B      1.246136    0.996092    0.511981
  N      0.650391   -0.425794    0.368476
  H     -2.409060    0.764357    0.534984
  H     -2.955775   -0.782606    0.534138
  H     -2.377497   -0.110172   -0.846796
  H      2.263820   -0.781147   -1.280468
  H      0.448806    0.052939   -1.895224
  H      1.743479    1.090338   -0.748124
  H      2.232262    1.073884    1.205863
  H      0.417538    1.877489    0.552728
  H     -0.386667   -0.476647    0.394525
  H      1.094988   -1.155022    0.917640

----------------------------
CARTESIAN COORDINATES (A.U.)
----------------------------
  NO LB      ZA    FRAG     MASS         X           Y           Z
   0 N     7.0000    0    14.007   -4.210680   -0.320889    0.306908
   1 B     5.0000    0    10.810    2.390892   -0.284356   -1.937014
   2 B     5.0000    0    10.810    2.354856    1.882341    0.967504
   3 N     7.0000    0    14.007    1.229062   -0.804635    0.696318
   4 H     1.0000    0     1.008   -4.552464    1.444426    1.010973
   5 H     1.0000    0     1.008   -5.585604   -1.478912    1.009374
   6 H     1.0000    0     1.008   -4.492819   -0.208195   -1.600213
   7 H     1.0000    0     1.008    4.277999   -1.476154   -2.419734
   8 H     1.0000    0     1.008    0.848121    0.100040   -3.581454
   9 H     1.0000    0     1.008    3.294698    2.060440   -1.413750
  10 H     1.0000    0     1.008    4.218365    2.029347    2.278751
  11 H     1.0000    0     1.008    0.789033    3.547940    1.044505
  12 H     1.0000    0     1.008   -0.730695   -0.900732    0.745544
  13 H     1.0000    0     1.008    2.069228   -2.182676    1.734089

--------------------------------
INTERNAL COORDINATES (ANGSTROEM)
--------------------------------
 N      0   0   0     0.000000000000     0.00000000     0.00000000
 B      1   0   0     3.689745853447     0.00000000     0.00000000
 B      2   1   0     1.917645409748    74.67922036     0.00000000
 N      2   1   3     1.547784841339    48.18277731    51.94911073
 H      1   2   3     1.021855101369   106.26768067    34.10928533
 H      1   2   3     1.021310783510   142.63305996   242.53862849
 H      1   2   3     1.021930471665    79.64218319   138.23711491
 H      2   1   3     1.208399211175   147.96387768   121.29032875
 H      2   1   3     1.210426813616    66.02496573   229.15102662
 H      3   2   1     1.357975690968    45.09869702   227.76140986
 H      3   2   1     1.208291610075   119.38375736   148.67345570
 H      3   2   1     1.210411093330   117.98045135   308.58373466
 H      4   2   1     1.038631516335   115.33498132     7.14246259
 H      4   2   1     1.015392182665   116.15175251   142.48250810

---------------------------
INTERNAL COORDINATES (A.U.)
---------------------------
 N      0   0   0     0.000000000000     0.00000000     0.00000000
 B      1   0   0     6.972609166786     0.00000000     0.00000000
 B      2   1   0     3.623824646394    74.67922036     0.00000000
 N      2   1   3     2.924889464366    48.18277731    51.94911073
 H      1   2   3     1.931026290138   106.26768067    34.10928533
 H      1   2   3     1.929997678454   142.63305996   242.53862849
 H      1   2   3     1.931168719355    79.64218319   138.23711491
 H      2   1   3     2.283543569567   147.96387768   121.29032875
 H      2   1   3     2.287375182889    66.02496573   229.15102662
 H      3   2   1     2.566202152452    45.09869702   227.76140986
 H      3   2   1     2.283340232957   119.38375736   148.67345570
 H      3   2   1     2.287345475853   117.98045135   308.58373466
 H      4   2   1     1.962729119933   115.33498132     7.14246259
 H      4   2   1     1.918813143762   116.15175251   142.48250810

---------------------
BASIS SET INFORMATION
---------------------
There are 3 groups of distinct atoms

 Group   1 Type N   : 7s4p1d contracted to 3s2p1d pattern {511/31/1}
 Group   2 Type B   : 7s4p1d contracted to 3s2p1d pattern {511/31/1}
 Group   3 Type H   : 4s1p contracted to 2s1p pattern {31/1}

Atom   0N    basis set group =>   1
Atom   1B    basis set group =>   2
Atom   2B    basis set group =>   2
Atom   3N    basis set group =>   1
Atom   4H    basis set group =>   3
Atom   5H    basis set group =>   3
Atom   6H    basis set group =>   3
Atom   7H    basis set group =>   3
Atom   8H    basis set group =>   3
Atom   9H    basis set group =>   3
Atom  10H    basis set group =>   3
Atom  11H    basis set group =>   3
Atom  12H    basis set group =>   3
Atom  13H    basis set group =>   3
---------------------------------
AUXILIARY/J BASIS SET INFORMATION
---------------------------------
There are 3 groups of distinct atoms

 Group   1 Type N   : 12s5p4d2f1g contracted to 6s4p3d1f1g pattern {711111/2111/211/2/1}
 Group   2 Type B   : 12s5p4d2f1g contracted to 6s4p3d1f1g pattern {711111/2111/211/2/1}
 Group   3 Type H   : 5s2p1d contracted to 3s1p1d pattern {311/2/1}

Atom   0N    basis set group =>   1
Atom   1B    basis set group =>   2
Atom   2B    basis set group =>   2
Atom   3N    basis set group =>   1
Atom   4H    basis set group =>   3
Atom   5H    basis set group =>   3
Atom   6H    basis set group =>   3
Atom   7H    basis set group =>   3
Atom   8H    basis set group =>   3
Atom   9H    basis set group =>   3
Atom  10H    basis set group =>   3
Atom  11H    basis set group =>   3
Atom  12H    basis set group =>   3
Atom  13H    basis set group =>   3


           ************************************************************
           *        Program running with 6 parallel MPI-processes     *
           *              working on a common directory               *
           ************************************************************
------------------------------------------------------------------------------
                             ORCA STARTUP CALCULATIONS
                           -- RI-GTO INTEGRALS CHOSEN --
------------------------------------------------------------------------------
------------------------------------------------------------------------------
                   ___                                                        
                  /   \      - P O W E R E D   B Y -                         
                 /     \                                                     
                 |  |  |   _    _      __       _____    __    __             
                 |  |  |  | |  | |    /  \     |  _  \  |  |  /  |          
                  \  \/   | |  | |   /    \    | | | |  |  | /  /          
                 / \  \   | |__| |  /  /\  \   | |_| |  |  |/  /          
                |  |  |   |  __  | /  /__\  \  |    /   |      \           
                |  |  |   | |  | | |   __   |  |    \   |  |\   \          
                \     /   | |  | | |  |  |  |  | |\  \  |  | \   \       
                 \___/    |_|  |_| |__|  |__|  |_| \__\ |__|  \__/        
                                                                              
                      - O R C A' S   B I G   F R I E N D -                    
                                      &                                       
                       - I N T E G R A L  F E E D E R -                       
                                                                              
 v1 FN, 2020, v2 2021, v3 2022-2024                                           
------------------------------------------------------------------------------


----------------------
SHARK INTEGRAL PACKAGE
----------------------

Number of atoms                             ...     14
Number of basis functions                   ...    106
Number of shells                            ...     54
Maximum angular momentum                    ...      2
Integral batch strategy                     ... SHARK/LIBINT Hybrid
RI-J (if used) integral strategy            ... SPLIT-RIJ (Revised 2003 algorithm where possible)
Printlevel                                  ...      1
Contraction scheme used                     ... SEGMENTED contraction
Prescreening option                         ... SCHWARTZ
   Thresh                                   ... 2.500e-11
   Tcut                                     ... 2.500e-12
   Tpresel                                  ... 2.500e-12 
Coulomb Range Separation                    ... NOT USED
Exchange Range Separation                   ... NOT USED
Multipole approximations                    ... NOT USED
Finite Nucleus Model                        ... NOT USED
CABS basis                                  ... NOT available
Auxiliary Coulomb fitting basis             ... AVAILABLE
   # of basis functions in Aux-J            ...    306
   # of shells in Aux-J                     ...    110
   Maximum angular momentum in Aux-J        ...      4
Auxiliary J/K fitting basis                 ... NOT available
Auxiliary Correlation fitting basis         ... NOT available
Auxiliary 'external' fitting basis          ... NOT available

Checking pre-screening integrals            ... done (  0.0 sec) Dimension = 54
   => SHARK Basis and OBASIS are compatible. Storing Pre-screening
Shell pair information
Shell pair cut-off parameter TPreSel        ...   2.5e-12
Total number of shell pairs                 ...      1485
Shell pairs after pre-screening             ...      1445
Total number of primitive shell pairs       ...      4933
Primitive shell pairs kept                  ...      3846
          la=0 lb=0:    520 shell pairs
          la=1 lb=0:    557 shell pairs
          la=1 lb=1:    162 shell pairs
          la=2 lb=0:    126 shell pairs
          la=2 lb=1:     70 shell pairs
          la=2 lb=2:     10 shell pairs

Checking whether 4 symmetric matrices of dimension 106 fit in memory
:Max Core in MB      =   4096.00
 MB in use           =      5.11
 MB left             =   4090.89
 MB needed           =      0.17
 Data fit in memory  = YES
Calculating RI/J V-Matrix + Cholesky decomp.... done (  0.0 sec)
Calculating Nuclear repulsion               ... done (  0.0 sec) ENN=    120.408054657859 Eh

Diagonalization of the overlap matrix:
Smallest eigenvalue                        ... 4.079e-03
Time for diagonalization                   ...    0.002 sec
Threshold for overlap eigenvalues          ... 1.000e-07
Number of eigenvalues below threshold      ... 0
Time for construction of square roots      ...    0.001 sec
Total time needed                          ...    0.004 sec

-------------------
DFT GRID GENERATION
-------------------

General Integration Accuracy     IntAcc      ... 4.388
Radial Grid Type                 RadialGrid  ... OptM3 with GC (2021)
Angular Grid (max. ang.)         AngularGrid ... 4 (Lebedev-302)
Angular grid pruning method      GridPruning ... 4 (adaptive)
Weight generation scheme         WeightScheme... mBecke (2022)
Basis function cutoff            BFCut       ... 1.0000e-11
Integration weight cutoff        WCut        ... 1.0000e-14
Partially contracted basis set               ... off
Rotationally invariant grid construction     ... off
Angular grids for H and He will be reduced by one unit

Total number of grid points                  ...    56417
Total number of batches                      ...      887
Average number of points per batch           ...       63
Average number of grid points per atom       ...     4030

--------------------
COSX GRID GENERATION
--------------------

GRIDX 1
-------
General Integration Accuracy     IntAcc      ... 3.816
Radial Grid Type                 RadialGrid  ... OptM3 with GC (2021)
Angular Grid (max. ang.)         AngularGrid ... 1 (Lebedev-50)
Angular grid pruning method      GridPruning ... 4 (adaptive)
Weight generation scheme         WeightScheme... mBecke (2022)
Basis function cutoff            BFCut       ... 1.0000e-11
Integration weight cutoff        WCut        ... 1.0000e-14
Partially contracted basis set               ... on
Rotationally invariant grid construction     ... off
Angular grids for H and He will be reduced by one unit

Total number of grid points                  ...     7303
Total number of batches                      ...       65
Average number of points per batch           ...      112
Average number of grid points per atom       ...      522
UseSFitting                                  ... on

GRIDX 2
-------
General Integration Accuracy     IntAcc      ... 4.020
Radial Grid Type                 RadialGrid  ... OptM3 with GC (2021)
Angular Grid (max. ang.)         AngularGrid ... 2 (Lebedev-110)
Angular grid pruning method      GridPruning ... 4 (adaptive)
Weight generation scheme         WeightScheme... mBecke (2022)
Basis function cutoff            BFCut       ... 1.0000e-11
Integration weight cutoff        WCut        ... 1.0000e-14
Partially contracted basis set               ... on
Rotationally invariant grid construction     ... off
Angular grids for H and He will be reduced by one unit

Total number of grid points                  ...    14950
Total number of batches                      ...      124
Average number of points per batch           ...      120
Average number of grid points per atom       ...     1068
UseSFitting                                  ... on

GRIDX 3
-------
General Integration Accuracy     IntAcc      ... 4.338
Radial Grid Type                 RadialGrid  ... OptM3 with GC (2021)
Angular Grid (max. ang.)         AngularGrid ... 3 (Lebedev-194)
Angular grid pruning method      GridPruning ... 4 (adaptive)
Weight generation scheme         WeightScheme... mBecke (2022)
Basis function cutoff            BFCut       ... 1.0000e-11
Integration weight cutoff        WCut        ... 1.0000e-14
Partially contracted basis set               ... on
Rotationally invariant grid construction     ... off
Angular grids for H and He will be reduced by one unit

Total number of grid points                  ...    32600
Total number of batches                      ...      264
Average number of points per batch           ...      123
Average number of grid points per atom       ...     2329
UseSFitting                                  ... on
Grids setup in   0.6 sec
Initializing property integral containers    ... done (  0.0 sec)

SHARK setup successfully completed in   0.7 seconds

Maximum memory used throughout the entire STARTUP-calculation: 15.7 MB


           ************************************************************
           *        Program running with 6 parallel MPI-processes     *
           *              working on a common directory               *
           ************************************************************
-------------------------------------------------------------------------------
                                 ORCA GUESS
                   Start orbitals & Density for SCF / CASSCF
-------------------------------------------------------------------------------

------------
SCF SETTINGS
------------
Hamiltonian:
 Density Functional     Method          .... DFT(GTOs)
 Exchange Functional    Exchange        .... B88
   X-Alpha parameter    XAlpha          ....  0.666667
   Becke's b parameter  XBeta           ....  0.004200
 Correlation Functional Correlation     .... LYP
 LDA part of GGA corr.  LDAOpt          .... VWN-5
 Gradients option       PostSCFGGA      .... off
 Hybrid DFT is turned on
   Fraction HF Exchange ScalHFX         ....  0.200000
   Scaling of DF-GGA-X  ScalDFX         ....  0.720000
   Scaling of DF-GGA-C  ScalDFC         ....  0.810000
   Scaling of DF-LDA-C  ScalLDAC        ....  1.000000
   Perturbative correction              ....  0.000000
   NL short-range parameter             ....  4.800000
 RI-approximation to the Coulomb term is turned on
   Number of AuxJ basis functions       .... 306
   RIJ-COSX (HFX calculated with COS-X)).... on


General Settings:
 Integral files         IntName         .... orca
 Hartree-Fock type      HFTyp           .... RHF
 Total Charge           Charge          ....    0
 Multiplicity           Mult            ....    1
 Number of Electrons    NEL             ....   34
 Basis Dimension        Dim             ....  106
 Nuclear Repulsion      ENuc            ....    120.4080546579 Eh

Convergence Acceleration:
 AO-DIIS                CNVDIIS         .... on
   Start iteration      DIISMaxIt       ....    12
   Startup error        DIISStart       ....  0.200000
   # of expansion vecs  DIISMaxEq       ....     5
   Bias factor          DIISBfac        ....   1.050
   Max. coefficient     DIISMaxC        ....  10.000
 MO-DIIS                CNVKDIIS        .... off
 Trust-Rad. Augm. Hess. CNVTRAH         .... auto
   Auto Start mean grad. ratio tolernc. ....  1.125000
   Auto Start start iteration           ....    50
   Auto Start num. interpolation iter.  ....    10
   Max. Number of Micro iterations      ....    24
   Max. Number of Macro iterations      .... Maxiter - #DIIS iter
   Number of Davidson start vectors     ....     2
   Converg. threshold    (grad. norm)   ....   1.000e-05
   Grad. Scal. Fac. for Micro threshold ....   0.100
   Minimum threshold for Micro iter.    ....   1.000e-02
   NR start threshold (gradient norm)   ....   1.000e-04
   Initial trust radius                 ....   0.400
   Minimum AH scaling param. (alpha)    ....   1.000
   Maximum AH scaling param. (alpha)    .... 1000.000
   Quad. conv. algorithm                .... NR
   White noise on init. David. guess    .... on
   Maximum white noise                  ....   0.010
   Pseudo random numbers                .... off
   Inactive MOs                         .... canonical
   Orbital update algorithm             .... Taylor
   Preconditioner                       .... Diag
   Full preconditioner red. dimension   ....   250
 SOSCF                 CNVSOSCF           .... on
   Start iteration     SOSCFMaxIt         ....   150
   Startup grad/error  SOSCFStart         ....  0.003300
   Hessian update      SOSCFHessUp        .... L-BFGS
   Autom. constraints  SOSCFAutoConstrain .... off
 Level Shifting         CNVShift        .... on
   Level shift para.    LevelShift      ....    0.2500
   Turn off err/grad.   ShiftErr        ....    0.0010
 Zerner damping         CNVZerner       .... off
 Static damping         CNVDamp         .... on
   Fraction old density DampFac         ....    0.7000
   Max. Damping (<1)    DampMax         ....    0.9800
   Min. Damping (>=0)   DampMin         ....    0.0000
   Turn off err/grad.   DampErr         ....    0.1000

SCF Procedure:
 Maximum # iterations   MaxIter         ....   125
 SCF integral mode      SCFMode         .... Direct
   Integral package                     .... SHARK and LIBINT hybrid scheme
 Reset frequency        DirectResetFreq ....    20
 Integral Threshold     Thresh          ....  2.500e-11 Eh
 Primitive CutOff       TCut            ....  2.500e-12 Eh

Convergence Tolerance:
 Convergence Check Mode ConvCheckMode   .... Total+1el-Energy
 Convergence forced     ConvForced      .... 0
 Energy Change          TolE            ....  1.000e-08 Eh
 1-El. energy change                    ....  1.000e-05 Eh
 Orbital Gradient       TolG            ....  1.000e-05
 Orbital Rotation angle TolX            ....  1.000e-05
 DIIS Error             TolErr          ....  5.000e-07

------------------------------
INITIAL GUESS: MODEL POTENTIAL
------------------------------
Loading Hartree-Fock densities                     ... done
Calculating cut-offs                               ... done
Initializing the effective Hamiltonian             ... done
Setting up the integral package (SHARK)            ... done
Starting the Coulomb interaction                   ... done (   0.0 sec)
Making the grid                                    ... done (   0.1 sec)
Mapping shells                                     ... done
Starting the XC term evaluation                    ... done (   0.0 sec)
  promolecular density results
     # of electrons  =     33.995436661
     EX              =    -23.763476992
     EC              =     -1.046934895
     EX+EC           =    -24.810411887
Transforming the Hamiltonian                       ... done (   0.0 sec)
Diagonalizing the Hamiltonian                      ... done (   0.0 sec)
Back transforming the eigenvectors                 ... done (   0.0 sec)
Now organizing SCF variables                       ... done
                      ------------------
                      INITIAL GUESS DONE (   0.1 sec)
                      ------------------
             **** ENERGY FILE WAS UPDATED (orca.en.tmp) ****
Finished Guess after   0.2 sec
Maximum memory used throughout the entire GUESS-calculation: 7.5 MB


           ************************************************************
           *        Program running with 6 parallel MPI-processes     *
           *              working on a common directory               *
           ************************************************************

-------------------------------------------------------------------------------------------
                                      ORCA LEAN-SCF
                              memory conserving SCF solver
-------------------------------------------------------------------------------------------

----------------------------------------D-I-I-S--------------------------------------------
Iteration    Energy (Eh)           Delta-E    RMSDP     MaxDP     DIISErr   Damp  Time(sec)
-------------------------------------------------------------------------------------------
               ***  Starting incremental Fock matrix formation  ***
    1    -164.8130380273354945     0.00e+00  1.16e-02  9.54e-02  2.72e-01  0.700   0.5
    2    -164.9141496110461844    -1.01e-01  8.20e-03  5.24e-02  1.22e-01  0.700   0.8
                               ***Turning on AO-DIIS***
    3    -164.9539675257946101    -3.98e-02  3.23e-03  2.33e-02  3.38e-02  0.700   0.3
    4    -164.9775917990216385    -2.36e-02  5.16e-03  3.55e-02  1.66e-02  0.000   0.4
    5    -165.0294503042159135    -5.19e-02  1.12e-03  7.21e-03  6.28e-03  0.000   0.4
                              *** Initializing SOSCF ***
---------------------------------------S-O-S-C-F--------------------------------------
Iteration    Energy (Eh)           Delta-E    RMSDP     MaxDP     MaxGrad    Time(sec)
--------------------------------------------------------------------------------------
    6    -165.0297886359909398    -3.38e-04  3.33e-04  1.93e-03  2.26e-03     0.3
               *** Restarting incremental Fock matrix formation ***
    7    -165.0298702784279499    -8.16e-05  1.83e-04  1.00e-03  2.52e-04     0.5
    8    -165.0298714392578177    -1.16e-06  4.99e-05  4.99e-04  2.07e-04     0.4
    9    -165.0298721999175768    -7.61e-07  1.26e-05  1.11e-04  3.35e-05     0.4
   10    -165.0298722063113246    -6.39e-09  5.86e-06  5.45e-05  3.12e-05     0.4
                 **** Energy Check signals convergence ****

               *****************************************************
               *                     SUCCESS                       *
               *           SCF CONVERGED AFTER  10 CYCLES          *
               *****************************************************

Recomputing exchange energy using gridx3       ... done (    0.569 sec)
Old exchange energy                            :     -4.901670189 Eh
New exchange energy                            :     -4.901657283 Eh
Exchange energy change after final integration :      0.000012906 Eh
Total energy after final integration           :   -165.029859310 Eh
             **** ENERGY FILE WAS UPDATED (orca.en.tmp) ****

----------------
TOTAL SCF ENERGY
----------------

Total Energy       :       -165.02985931040163 Eh           -4490.69077 eV

Components:
Nuclear Repulsion  :        120.40805465785922 Eh            3276.46974 eV
Electronic Energy  :       -285.43792687457898 Eh           -7767.16087 eV
One Electron Energy:       -459.27725020495762 Eh          -12497.56934 eV
Two Electron Energy:        173.83932333037865 Eh            4730.40848 eV

Virial components:
Potential Energy   :       -328.06932205015158 Eh           -8927.22010 eV
Kinetic Energy     :        163.03946273974995 Eh            4436.52933 eV
Virial Ratio       :          2.01220806630005

DFT components:
N(Alpha)           :       16.999984716935 electrons
N(Beta)            :       16.999984716935 electrons
N(Total)           :       33.999969433870 electrons
E(X)               :      -19.404645548860 Eh       
E(C)               :       -1.254950926535 Eh       
E(XC)              :      -20.659596475395 Eh       

---------------
SCF CONVERGENCE
---------------

  Last Energy change         ...    6.3937e-09  Tolerance :   1.0000e-08
  Last MAX-Density change    ...    5.4533e-05  Tolerance :   1.0000e-07
  Last RMS-Density change    ...    5.8617e-06  Tolerance :   5.0000e-09
  Last DIIS Error            ...    2.2645e-03  Tolerance :   5.0000e-07
  Last Orbital Gradient      ...    3.1158e-05  Tolerance :   1.0000e-05
  Last Orbital Rotation      ...    2.3276e-05  Tolerance :   1.0000e-05


----------------
ORBITAL ENERGIES
----------------

  NO   OCC          E(Eh)            E(eV) 
   0   2.0000     -14.340900      -390.2357 
   1   2.0000     -14.338492      -390.1702 
   2   2.0000      -6.733175      -183.2190 
   3   2.0000      -6.733103      -183.2170 
   4   2.0000      -0.885077       -24.0842 
   5   2.0000      -0.867762       -23.6130 
   6   2.0000      -0.582659       -15.8549 
   7   2.0000      -0.517703       -14.0874 
   8   2.0000      -0.487248       -13.2587 
   9   2.0000      -0.486553       -13.2398 
  10   2.0000      -0.457720       -12.4552 
  11   2.0000      -0.413114       -11.2414 
  12   2.0000      -0.321711        -8.7542 
  13   2.0000      -0.320814        -8.7298 
  14   2.0000      -0.316799        -8.6205 
  15   2.0000      -0.292504        -7.9594 
  16   2.0000      -0.292352        -7.9553 
  17   0.0000       0.027652         0.7524 
  18   0.0000       0.069695         1.8965 
  19   0.0000       0.073953         2.0124 
  20   0.0000       0.110574         3.0089 
  21   0.0000       0.117514         3.1977 
  22   0.0000       0.128360         3.4928 
  23   0.0000       0.146755         3.9934 
  24   0.0000       0.174382         4.7452 
  25   0.0000       0.197502         5.3743 
  26   0.0000       0.228240         6.2107 
  27   0.0000       0.228830         6.2268 
*Only the first 10 virtual orbitals were printed.

                    ********************************
                    * MULLIKEN POPULATION ANALYSIS *
                    ********************************

-----------------------
MULLIKEN ATOMIC CHARGES
-----------------------
   0 N :   -0.220765
   1 B :   -0.119321
   2 B :   -0.120634
   3 N :    0.034871
   4 H :    0.116603
   5 H :    0.105801
   6 H :    0.117370
   7 H :   -0.036893
   8 H :   -0.058132
   9 H :    0.026017
  10 H :   -0.036408
  11 H :   -0.058359
  12 H :    0.115576
  13 H :    0.134275
Sum of atomic charges:    0.0000000

--------------------------------
MULLIKEN REDUCED ORBITAL CHARGES
--------------------------------
  0 N s       :     3.408080  s :     3.408080
      pz      :     1.120841  p :     3.797502
      px      :     1.530769
      py      :     1.145892
      dz2     :     0.004943  d :     0.015183
      dxz     :     0.002292
      dyz     :     0.001364
      dx2y2   :     0.002685
      dxy     :     0.003899

  1 B s       :     2.913125  s :     2.913125
      pz      :     0.673412  p :     2.133121
      px      :     0.860009
      py      :     0.599700
      dz2     :     0.022741  d :     0.073075
      dxz     :     0.020133
      dyz     :     0.012752
      dx2y2   :     0.009172
      dxy     :     0.008276

  2 B s       :     2.913534  s :     2.913534
      pz      :     0.585760  p :     2.134065
      px      :     0.859220
      py      :     0.689084
      dz2     :     0.017774  d :     0.073036
      dxz     :     0.008718
      dyz     :     0.008710
      dx2y2   :     0.018183
      dxy     :     0.019651

  3 N s       :     3.289909  s :     3.289909
      pz      :     1.298768  p :     3.661149
      px      :     1.153153
      py      :     1.209228
      dz2     :     0.002015  d :     0.014072
      dxz     :     0.002215
      dyz     :     0.003336
      dx2y2   :     0.003645
      dxy     :     0.002860

  4 H s       :     0.837801  s :     0.837801
      pz      :     0.011843  p :     0.045596
      px      :     0.012449
      py      :     0.021303

  5 H s       :     0.848407  s :     0.848407
      pz      :     0.011968  p :     0.045792
      px      :     0.017479
      py      :     0.016345

  6 H s       :     0.837040  s :     0.837040
      pz      :     0.023660  p :     0.045590
      px      :     0.012426
      py      :     0.009504

  7 H s       :     1.024559  s :     1.024559
      pz      :     0.001556  p :     0.012333
      px      :     0.007278
      py      :     0.003499

  8 H s       :     1.046028  s :     1.046028
      pz      :     0.005714  p :     0.012104
      px      :     0.004736
      py      :     0.001654

  9 H s       :     0.956405  s :     0.956405
      pz      :     0.005833  p :     0.017578
      px      :     0.005298
      py      :     0.006447

 10 H s       :     1.024070  s :     1.024070
      pz      :     0.004105  p :     0.012338
      px      :     0.007136
      py      :     0.001098

 11 H s       :     1.046255  s :     1.046255
      pz      :     0.001428  p :     0.012104
      px      :     0.004849
      py      :     0.005827

 12 H s       :     0.832663  s :     0.832663
      pz      :     0.009608  p :     0.051761
      px      :     0.032976
      py      :     0.009177

 13 H s       :     0.818596  s :     0.818596
      pz      :     0.015581  p :     0.047129
      px      :     0.013251
      py      :     0.018297



                     *******************************
                     * LOEWDIN POPULATION ANALYSIS *
                     *******************************

----------------------
LOEWDIN ATOMIC CHARGES
----------------------
   0 N :   -0.082864
   1 B :   -0.216595
   2 B :   -0.216929
   3 N :    0.183578
   4 H :    0.071352
   5 H :    0.066072
   6 H :    0.071846
   7 H :   -0.031653
   8 H :   -0.036800
   9 H :    0.098484
  10 H :   -0.031619
  11 H :   -0.036908
  12 H :    0.063643
  13 H :    0.098392

-------------------------------
LOEWDIN REDUCED ORBITAL CHARGES
-------------------------------
  0 N s       :     3.131455  s :     3.131455
      pz      :     1.182855  p :     3.918217
      px      :     1.528497
      py      :     1.206865
      dz2     :     0.011953  d :     0.033192
      dxz     :     0.003720
      dyz     :     0.004617
      dx2y2   :     0.005411
      dxy     :     0.007491

  1 B s       :     2.697377  s :     2.697377
      pz      :     0.754401  p :     2.327648
      px      :     0.893647
      py      :     0.679600
      dz2     :     0.054677  d :     0.191570
      dxz     :     0.052068
      dyz     :     0.031451
      dx2y2   :     0.024324
      dxy     :     0.029051

  2 B s       :     2.697363  s :     2.697363
      pz      :     0.681012  p :     2.328130
      px      :     0.892794
      py      :     0.754324
      dz2     :     0.045867  d :     0.191435
      dxz     :     0.031243
      dyz     :     0.024222
      dx2y2   :     0.039875
      dxy     :     0.050229

  3 N s       :     3.001296  s :     3.001296
      pz      :     1.318646  p :     3.777749
      px      :     1.204492
      py      :     1.254611
      dz2     :     0.005701  d :     0.037377
      dxz     :     0.005401
      dyz     :     0.008168
      dx2y2   :     0.010945
      dxy     :     0.007162

  4 H s       :     0.810773  s :     0.810773
      pz      :     0.025225  p :     0.117875
      px      :     0.035959
      py      :     0.056691

  5 H s       :     0.816755  s :     0.816755
      pz      :     0.025302  p :     0.117173
      px      :     0.055330
      py      :     0.036541

  6 H s       :     0.810279  s :     0.810279
      pz      :     0.062004  p :     0.117875
      px      :     0.035562
      py      :     0.020308

  7 H s       :     1.000240  s :     1.000240
      pz      :     0.006047  p :     0.031413
      px      :     0.016383
      py      :     0.008982

  8 H s       :     1.006007  s :     1.006007
      pz      :     0.013646  p :     0.030793
      px      :     0.012392
      py      :     0.004755

  9 H s       :     0.855485  s :     0.855485
      pz      :     0.017191  p :     0.046031
      px      :     0.011932
      py      :     0.016908

 10 H s       :     1.000187  s :     1.000187
      pz      :     0.010035  p :     0.031432
      px      :     0.016094
      py      :     0.005303

 11 H s       :     1.006118  s :     1.006118
      pz      :     0.004418  p :     0.030790
      px      :     0.012604
      py      :     0.013768

 12 H s       :     0.783599  s :     0.783599
      pz      :     0.023278  p :     0.152758
      px      :     0.109216
      py      :     0.020264

 13 H s       :     0.783611  s :     0.783611
      pz      :     0.040284  p :     0.117997
      px      :     0.030445
      py      :     0.047267



                      *****************************
                      * MAYER POPULATION ANALYSIS *
                      *****************************

  NA   - Mulliken gross atomic population
  ZA   - Total nuclear charge
  QA   - Mulliken gross atomic charge
  VA   - Mayer's total valence
  BVA  - Mayer's bonded valence
  FA   - Mayer's free valence

  ATOM       NA         ZA         QA         VA         BVA        FA
  0 N      7.2208     7.0000    -0.2208     3.1621     3.1621     0.0000
  1 B      5.1193     5.0000    -0.1193     3.6806     3.6806     0.0000
  2 B      5.1206     5.0000    -0.1206     3.6820     3.6820     0.0000
  3 N      6.9651     7.0000     0.0349     3.6070     3.6070     0.0000
  4 H      0.8834     1.0000     0.1166     0.9923     0.9923     0.0000
  5 H      0.8942     1.0000     0.1058     0.9949     0.9949     0.0000
  6 H      0.8826     1.0000     0.1174     0.9924     0.9924     0.0000
  7 H      1.0369     1.0000    -0.0369     0.9760     0.9760    -0.0000
  8 H      1.0581     1.0000    -0.0581     0.9754     0.9754     0.0000
  9 H      0.9740     1.0000     0.0260     0.9699     0.9699     0.0000
 10 H      1.0364     1.0000    -0.0364     0.9760     0.9760    -0.0000
 11 H      1.0584     1.0000    -0.0584     0.9751     0.9751    -0.0000
 12 H      0.8844     1.0000     0.1156     1.0921     1.0921     0.0000
 13 H      0.8657     1.0000     0.1343     0.9824     0.9824    -0.0000

  Mayer bond orders larger than 0.100000
B(  0-N ,  4-H ) :   0.9827 B(  0-N ,  5-H ) :   0.9872 B(  0-N ,  6-H ) :   0.9827 
B(  0-N , 12-H ) :   0.2007 B(  1-B ,  2-B ) :   0.3216 B(  1-B ,  3-N ) :   0.8964 
B(  1-B ,  7-H ) :   0.9728 B(  1-B ,  8-H ) :   0.9675 B(  1-B ,  9-H ) :   0.4867 
B(  2-B ,  3-N ) :   0.8962 B(  2-B ,  9-H ) :   0.4873 B(  2-B , 10-H ) :   0.9728 
B(  2-B , 11-H ) :   0.9676 B(  3-N , 12-H ) :   0.8739 B(  3-N , 13-H ) :   0.9570 


-------
TIMINGS
-------

Total SCF time: 0 days 0 hours 0 min 5 sec 

Total time                  ....       5.480 sec
Sum of individual times     ....       5.197 sec  ( 94.8%)

SCF preparation             ....       0.180 sec  (  3.3%)
Fock matrix formation       ....       4.564 sec  ( 83.3%)
  Startup                   ....       0.004 sec  (  0.1% of F)
  Split-RI-J                ....       0.347 sec  (  7.6% of F)
  Chain of spheres X        ....       3.175 sec  ( 69.6% of F)
  XC integration            ....       1.180 sec  ( 25.9% of F)
    XC Preparation          ....       0.000 sec  (  0.0% of XC)
    Basis function eval.    ....       0.305 sec  ( 25.8% of XC)
    Density eval.           ....       0.154 sec  ( 13.0% of XC)
    XC-Functional eval.     ....       0.067 sec  (  5.6% of XC)
    XC-Potential eval.      ....       0.186 sec  ( 15.7% of XC)
Diagonalization             ....       0.000 sec  (  0.0%)
Density matrix formation    ....       0.039 sec  (  0.7%)
Total Energy calculation    ....       0.063 sec  (  1.2%)
Population analysis         ....       0.011 sec  (  0.2%)
Orbital Transformation      ....       0.101 sec  (  1.8%)
Orbital Orthonormalization  ....       0.000 sec  (  0.0%)
DIIS solution               ....       0.203 sec  (  3.7%)
SOSCF solution              ....       0.037 sec  (  0.7%)
Finished LeanSCF after   5.5 sec

Maximum memory used throughout the entire LEANSCF-calculation: 9.5 MB


-------------------------------------------------------------------------------
                          DFT DISPERSION CORRECTION                            
                                                                               
                              DFTD3 V3.1  Rev 1                                
                          USING Becke-Johnson damping                          
-------------------------------------------------------------------------------
The B3LYP functional is recognized
Active option DFTDOPT                   ...         4   

molecular C6(AA) [au] = 1294.982840 


            DFT-D V3
 parameters
 s6 scaling factor         :     1.0000 
 a1 scaling factor         :     0.3981 
 s8 scaling factor         :     1.9889 
 a2 scaling factor         :     4.4211 
 ad hoc parameters k1-k3   :    16.0000     1.3333    -4.0000 

 Edisp/kcal,au: -8.678388662266  -0.013829891173 
 E6   /kcal   :  -4.350043887 
 E8   /kcal   :  -4.328344775 
 % E8         :  49.874981909 

-------------------------   ----------------
Dispersion correction           -0.013829891
-------------------------   ----------------


-------------------------   --------------------
FINAL SINGLE POINT ENERGY      -165.043689201575
-------------------------   --------------------



           ************************************************************
           *        Program running with 6 parallel MPI-processes     *
           *              working on a common directory               *
           ************************************************************
------------------------------------------------------------------------------
                         ORCA SCF GRADIENT CALCULATION
------------------------------------------------------------------------------

Nuc. rep. gradient        (SHARK) ... done (  0.0 sec)
HCore & Overlap gradient  (SHARK) ... done (  0.0 sec)
Split-RIJ-J gradient      (SHARK) ... done (  0.2 sec)
done (  2.4 sec)
XC gradient                       ... done (  0.6 sec)
Dispersion correction             ... done (  0.1 sec)

-------------------
DISPERSION GRADIENT
-------------------

   1   N   :   -0.000633109   -0.000071665    0.000048689
   2   B   :    0.000292865   -0.000088448   -0.000262380
   3   B   :    0.000291078    0.000229424    0.000161674
   4   N   :    0.000257865   -0.000132106    0.000098307
   5   H   :   -0.000281099    0.000042509    0.000037317
   6   H   :   -0.000165824   -0.000032978    0.000019950
   7   H   :   -0.000288857   -0.000015117   -0.000057017
   8   H   :    0.000115383   -0.000089478   -0.000159751
   9   H   :    0.000095951   -0.000026999   -0.000264958
  10   H   :    0.000103367    0.000095586   -0.000070174
  11   H   :    0.000112253    0.000129161    0.000133147
  12   H   :    0.000094495    0.000248681    0.000101762
  13   H   :   -0.000067127   -0.000105951    0.000077298
  14   H   :    0.000072759   -0.000182618    0.000136138

Difference to translation invariance:
           :    0.0000000000   -0.0000000000   -0.0000000000

Difference to rotation invariance:
           :    0.0000000000    0.0000000000   -0.0000000000

Norm of the Dispersion gradient    ...    0.0011767513
RMS gradient                       ...    0.0001815767
MAX gradient                       ...    0.0006331093

------------------
CARTESIAN GRADIENT
------------------

   1   N   :   -0.000120346   -0.000130741   -0.000131075
   2   B   :   -0.000040742   -0.000081040   -0.000006663
   3   B   :    0.000093186    0.000090354    0.000073023
   4   N   :    0.000067506   -0.000246691    0.000074122
   5   H   :   -0.000010644   -0.000063645    0.000025328
   6   H   :   -0.000011373    0.000029576    0.000081998
   7   H   :   -0.000087189    0.000073942    0.000010035
   8   H   :    0.000023124    0.000014168    0.000064074
   9   H   :   -0.000016221    0.000122787    0.000067075
  10   H   :    0.000079759    0.000012435   -0.000062525
  11   H   :   -0.000012359   -0.000006966   -0.000063158
  12   H   :   -0.000007802   -0.000037406   -0.000052637
  13   H   :    0.000011790    0.000217069   -0.000067585
  14   H   :    0.000031311    0.000006159   -0.000012011

Difference to translation invariance:
           :    0.0000000000   -0.0000000000    0.0000000000

Difference to rotation invariance:
           :    0.0000848306    0.0001903747   -0.0001281385

Norm of the Cartesian gradient     ...    0.0005218560
RMS gradient                       ...    0.0000805241
MAX gradient                       ...    0.0002466908

-------
TIMINGS
-------

Total SCF gradient time     ....        3.230 sec

Densities                   ....       0.000 sec  (  0.0%)
One electron gradient       ....       0.030 sec  (  0.9%)
RI-J Coulomb gradient       ....       0.173 sec  (  5.3%)
COSX gradient               ....       2.411 sec  ( 74.6%)
XC gradient                 ....       0.561 sec  ( 17.4%)

Maximum memory used throughout the entire SCFGRAD-calculation: 27.4 MB


           ************************************************************
           *        Program running with 6 parallel MPI-processes     *
           *              working on a common directory               *
           ************************************************************

------------------------------------------------------------------------------
                              ORCA PROPERTY CALCULATIONS
------------------------------------------------------------------------------

GBWName                                 ... orca.gbw
Number of atoms                         ...     14
Number of basis functions               ...    106
Max core memory                         ...   4096 MB

Electric properties:
Dipole moment                           ... YES
Quadrupole moment                       ...  NO
Static polarizability (Dipole/Dipole)   ...  NO
Static polarizability (Dipole/Quad.)    ...  NO
Static polarizability (Quad./Quad.)     ...  NO
Static polarizability (Velocity)        ...  NO
Static hyperpolarizability              ...  NO

Atomic electric properties:
Dipole moment                           ...  NO
Quadrupole moment                       ...  NO
Static polarizability                   ...  NO

Choice of electric origin               ... Center of mass
Position of electric origin             ...     0.162021     0.074824     0.039695

General magnetic properties:
Magnetizability                         ...  NO

EPR properties:
g-Tensor (aka g-matrix)                 ...  NO
Zero-Field splitting spin-orbit         ...  NO
Zero-field splitting spin-spin          ...  NO
Hyperfine couplings                     ...  NO (   0 nuclei)
Quadrupole couplings                    ...  NO (   0 nuclei)
Contact density                         ...  NO (   0 nuclei)

NMR properties:
Chemical shifts                         ...  NO (   0 nuclei)
Spin-rotation constants                 ...  NO (   0 nuclei)
Spin-spin couplings                     ...  NO (   0 nuclei,    0 pairs)

Choice of magnetic origin               ... GIAO
Position of magnetic origin             ...     0.000000     0.000000     0.000000

Properties with geometric perturbations:
SCF Hessian                             ...  NO
IR spectrum                             ...  NO
VCD spectrum                            ...  NO
X-ray spectroscopy properties:
SCF XES/XAS/RIXS spectra                ...  NO

SCF SOC stabilization energy            ...  NO
Diagonal Born-Oppenheimer correction    ...  NO

-------------
DIPOLE MOMENT
-------------

Method             : SCF
Type of density    : Electron Density
Multiplicity       :   1
Irrep              :   0
Energy             :  -165.0298593104016334 Eh
Basis              : AO
                                X                 Y                 Z
Electronic contribution:      0.815249224      -1.121490317       0.826763433
Nuclear contribution   :     -2.515460854       0.502781758      -0.366505139
                        -----------------------------------------
Total Dipole Moment    :     -1.700211630      -0.618708559       0.460258295
                        -----------------------------------------
Magnitude (a.u.)       :      1.866911237
Magnitude (Debye)      :      4.745311247



--------------------
Rotational spectrum 
--------------------
 
Rotational constants in cm-1:             0.361376             0.103302             0.094661 
Rotational constants in MHz :         10833.775106          3096.911578          2837.855118 

Dipole components along the rotational axes: 
x,y,z [a.u.] :    -1.795169    -0.004000    -0.512552 
x,y,z [Debye]:    -4.562957    -0.010166    -1.302803 

 

Dipole moment calculation done in   0.0 sec 

Maximum memory used throughout the entire PROP-calculation: 5.5 MB

--------------------------------
SUGGESTED CITATIONS FOR THIS RUN
--------------------------------

Below you find a list of papers that are relevant to this ORCA run
We neither can nor want to force you to cite these papers, but we appreciate if you do
You receive ORCA, which is the product of decades of hard work by many enthusiastic individuals, for free
The only thing we kindly ask in return is that you cite our papers,
We deeply appreciate it, if you show your appreciation for ORCA by not just citing the generic ORCA reference.

Please note that relegating all ORCA citations to the supporting information does *not* help us.
SI sections are not indexed - citations you put there will not count into any citation statistics
But we need these citations in order to attract the funding resources that allow us to do what we are doing

Therefore, if you are a happy ORCA user, please consider citing a few of the papers listed below in the main body of your paper

In addition to the list printed below, the program has created the file orca.bibtex that contains the list in bibtex format
You can import this file easily into all common literature databanks and citation aid programs


List of essential papers. We consider these as the minimum necessary citations

  1. Neese, F.
     Software update: the ORCA program system, version 6.0
     WIRES Comput. Molec. Sci. 2025 15(1), e70019
     doi.org/10.1002/wcms.7019

List of papers to cite with high priority. The work reported in these papers was absolutely
necessary for this run to complete.
Our perspective: the developers of density functionals and basis sets usually get cited in chemistry papers
Good! But without the algorithms to do something with them, the functionals or basis sets would not do anything.
Hence, in our opinion, the algorithm design and method developments papers are equally worthy of getting cited

  1. Neese, F.
     An improvement of the resolution of the identity approximation for the formation of the Coulomb matrix
     J. Comp. Chem. 2003 24(14), 1740-1747
     doi.org/10.1002/jcc.10318
  2. Neese, F.; Wennmohs, F.; Hansen, A.; Becker, U.
     Efficient, approximate and parallel Hartree-Fock and hybrid DFT calculations. A 'chain-of-spheres' algorithm for the Hartree-Fock exchange
     Chem. Phys. 2009 356(1-3), 98-109
     doi.org/10.1016/j.chemphys.2008.10.036
  3. Grimme, S.; Antony, J.; Ehrlich, S.; Krieg, H.
     A consistent and accurate ab initio parametrization of density functional dispersion correction (DFT-D) for the 94 elements H-Pu
     J. Chem. Phys. 2010 132 , 154104
     doi.org/10.1063/1.3382344
  4. Grimme, S.; Ehrlich, S.; Goerigk, L.
     Effect of the damping function in dispersion corrected density functional theory
     J. Comput. Chem. 2011 32(7), 1456-1465
     doi.org/10.1002/jcc.21759
  5. Helmich-Paris, B.; de Souza, B.; Neese, F.; Izsák, R.
     An improved chain of spheres for exchange algorithm
     J. Chem. Phys. 2021 155(10), 104109
     doi.org/10.1063/5.0058766
  6. Neese, F.
     The SHARK Integral Generation and Digestion System
     J. Comp. Chem. 2022 44(3), 381
     doi.org/10.1002/jcc.26942

List of suggested additional citations. These are papers that are important in the 'surrounding' of 
of this run, or papers that preceded the highly important papers. If you like your results we are grateful for a citation.

  1. Izsak, R.; Neese, F.
     An overlap fitted chain of spheres exchange method
     J. Chem. Phys. 2011 135 , 144105
     doi.org/10.1063/1.3646921
  2. Izsak, R.; Hansen, A.; Neese, F.
     The resolution of identity and chain of spheres approximations for the LPNO-CCSD singles Fock term
     Molec. Phys. 2012 110 , 2413-2417
     doi.org/10.1080/00268976.2012.687466
  3. Neese, F.
     The ORCA program system
     WIRES Comput. Molec. Sci. 2012 2(1), 73-78
     doi.org/10.1002/wcms.81
  4. Izsak, R.; Neese, F.; Klopper, W.
     Robust fitting techniques in the chain of spheres approximation to the Fock exchange: The role of the complementary space
     J. Chem. Phys. 2013 139 , 
     doi.org/10.1063/1.4819264
  5. Neese, F.
     Software update: the ORCA program system, version 4.0
     WIRES Comput. Molec. Sci. 2018 8(1), 1-6
     doi.org/10.1002/wcms.1327
  6. Neese, F.; Wennmohs, F.; Becker, U.; Riplinger, C.
     The ORCA quantum chemistry program package
     J. Chem. Phys. 2020 152(22), 224108
     doi.org/10.1063/5.0004608
  7. Neese, F.
     Software update: The ORCA program system—Version 5.0
     WIRES Comput. Molec. Sci. 2022 12(1), e1606
     doi.org/10.1002/wcms.1606

List of optional additional citations

  1. Neese, F.
     Approximate second-order SCF convergence for spin unrestricted wavefunctions
     Chem. Phys. Lett. 2000 325(1-3), 93-98
     doi.org/10.1016/s0009-2614(00)00662-x

Timings for individual modules:

Sum of individual times          ...       11.789 sec (=   0.196 min)
Startup calculation              ...        1.132 sec (=   0.019 min)   9.6 %
SCF iterations                   ...        6.574 sec (=   0.110 min)  55.8 %
Property calculations            ...        0.408 sec (=   0.007 min)   3.5 %
SCF Gradient evaluation          ...        3.675 sec (=   0.061 min)  31.2 %
                             ****ORCA TERMINATED NORMALLY****
TOTAL RUN TIME: 0 days 0 hours 0 minutes 12 seconds 347 msec
