
                                 *****************
                                 * O   R   C   A *
                                 *****************

                                            #,                                       
                                            ###                                      
                                            ####                                     
                                            #####                                    
                                            ######                                   
                                           ########,                                 
                                     ,,################,,,,,                         
                               ,,#################################,,                 
                          ,,##########################################,,             
                       ,#########################################, ''#####,          
                    ,#############################################,,   '####,        
                  ,##################################################,,,,####,       
                ,###########''''           ''''###############################       
              ,#####''   ,,,,##########,,,,          '''####'''          '####       
            ,##' ,,,,###########################,,,                        '##       
           ' ,,###''''                  '''############,,,                           
         ,,##''                                '''############,,,,        ,,,,,,###''
      ,#''                                            '''#######################'''  
     '                                                          ''''####''''         
             ,#######,   #######,   ,#######,      ##                                
            ,#'     '#,  ##    ##  ,#'     '#,    #''#        ,####,    ,#,          
            ##       ##  ##   ,#'  ##            #'  '#       #'       ,# #          
            ##       ##  #######   ##           ,######,      #####,      #          
            '#,     ,#'  ##    ##  '#,     ,#' ,#      #,     #,   #      #          
             '#######'   ##     ##  '#######'  #'      '#     '####' #    #          



                #########################################################
                #                        -***-                          #
                #          Department of theory and spectroscopy        #
                #                                                       #
                #                      Frank Neese                      #
                #                                                       #
                #     Directorship, Architecture, Infrastructure        #
                #                    SHARK, DRIVERS                     #
                #        Core code/Algorithms in most modules           #
                #                                                       #
                #        Max Planck Institute fuer Kohlenforschung      #
                #                Kaiser Wilhelm Platz 1                 #
                #                 D-45470 Muelheim/Ruhr                 #
                #                      Germany                          #
                #                                                       #
                #                  All rights reserved                  #
                #                        -***-                          #
                #########################################################


                         Program Version 6.1.0  -  RELEASE   -
                                (GIT: $679e74b$)
                          ($2025-06-10 18:02:51 +0200$)


 With contributions from (in alphabetic order):
[Max-Planck-Institut fuer Kohlenforschung]                               
  Daniel Aravena         : Magnetic Suceptibility                        
  Michael Atanasov       : Ab Initio Ligand Field Theory (pilot matlab implementation)
  Alexander A. Auer      : GIAO ZORA, VPT2 properties, NMR spectrum      
  Ute Becker             : All parallelization in ORCA, NUMFREQ, NUMCALC 
  Giovanni Bistoni       : ED, misc. LED, open-shell LED, HFLD           
  Dmytro Bykov           : pre 5.0 version of the SCF Hessian            
  Marcos Casanova-Páez   : Triplet and SCS-CIS(D). UHF-(DLPNO)-IP/EA/STEOM-CCSD. UHF-CVS-IP/STEOM-CCSD   
  Vijay G. Chilkuri      : MRCI spin determinant printing, contributions to CSF-ICE 
  Pauline Colinet        : FMM embedding                                 
  Dipayan Datta          : RHF DLPNO-CCSD density                        
  Achintya Kumar Dutta   : EOM-CC, STEOM-CC                              
  Nicolas Foglia         : Exact transition moments, OPA infrastructure, MCD improvements    
  Dmitry Ganyushin       : Spin-Orbit,Spin-Spin,Magnetic field MRCI      
  Miquel Garcia-Rates    : C-PCM and meta-GGA Hessian, CCSD/C-PCM, Gaussian charge scheme 
  Tiago L. C. Gouveia    : GS-ROHF, GS-ROCIS                             
  Yang Guo               : DLPNO-NEVPT2, F12-NEVPT2, CIM, IAO-localization        
  Andreas Hansen         : Spin unrestricted coupled pair/coupled cluster methods 
  Ingolf Harden          : AUTO-CI MPn and infrastructure                
  Benjamin Helmich-Paris : MC-RPA, TRAH-(SCF,CASSCF), AVAS, COSX integrals, SCF dyn. polar., MC-PDFT, srDFT 
  Lee Huntington         : MR-EOM, pCC                                   
  Robert Izsak           : Overlap fitted RIJCOSX, COSX-SCS-MP3, EOM     
  Riya Kayal             : Wick's Theorem for AUTO-CI, AUTO-CI UHF-CCSDT 
  Emily Kempfer          : AUTO-CI RHF CISDT and CCSDT, approximate NEVPT4
  Christian Kollmar      : KDIIS, OOCD, Brueckner-CCSD(T), CCSD density, CASPT2, CASPT2-K, improved NEVPT2 
  Axel Koslowski         : Symmetry handling                             
  Simone Kossmann        : meta-GGA functionals, TD-DFT gradient, OOMP2, (MP2 Hessian; deprecated post 5.0) 
  Lucas Lang             : DCDCAS, Hyperfine gauge corrections, ICE-SOC+SSC
  Marvin Lechner         : AUTO-CI (C++ implementation), FIC-MRCC        
  Spencer Leger          : CASSCF response                               
  Dagmar Lenk            : GEPOL surface, SMD, ORCA-2-JSON               
  Dimitrios Liakos       : Extrapolation schemes; Compound Job, Property file
  Dimitrios Manganas     : Further ROCIS development; embedding schemes. LFT, Crystal Embedding 
  Dimitrios Pantazis     : SARC Basis sets                               
  Anastasios Papadopoulos: AUTO-CI, single reference methods and gradients 
  Taras Petrenko         : pre 6.0 DFT Hessian and TD-DFT gradient,  ECA, NRVS 
  Petra Pikulova         : Analytic Raman intensities                    
  Peter Pinski           : DLPNO-MP2, DLPNO-MP2 Gradient                 
  Shashank Vittal Rao    : ES-AILFT, MagRelax                            
  Christoph Reimann      : Effective Core Potentials                     
  Marius Retegan         : Local ZFS, SOC                                
  Christoph Riplinger    : Optimizer, TS searches, QM/MM, DLPNO-CCSD(T), (RO)-DLPNO pert. Triples 
  Michael Roemelt        : Original ROCIS implementation, recursive CI coupling coefficients
  Masaaki Saitow         : Open-shell DLPNO-CCSD energy and density      
  Barbara Sandhoefer     : DKH picture change effects                    
  Yorick L. A. Schmerwitz: GMF and freeze-and-release deltaSCF, NEB S-IDPP initial path                    
  Kantharuban Sivalingam : CASSCF convergence/infrastructure, NEVPT2, NEVPT3, NEVPT4(SD), FIC-MRCI and CEPA variants
  Bernardo de Souza      : ESD, SOC TD-DFT                               
  Georgi L. Stoychev     : AutoAux, RI-MP2 NMR, DLPNO-MP2 response, X2C  
  Van Anh Tran           : RI-MP2 g-tensors                              
  Willem Van den Heuvel  : Paramagnetic NMR                              
  Zikuan Wang            : NOTCH, Electric field optimization            
  Frank Wennmohs         : Technical directorship and infrastructure     
  Hang Xu                : AUTO-CI-Response properties                   
                                                                         
[FACCTs GmbH]                                                            
  Markus Bursch, Nicolas Foglia, Miquel Garcia-Rates, Ingolf Harden, Hagen Neugebauer, Anastasios Papadopoulos, 
  Christoph Riplinger, Bernardo de Souza, Georgi L. Stoychev                                                    
                                                                 
  APM, various basis sets, CI-OPT, improved COSX, DLPNO-Multilevel,           
  DOCKER, DRACO, updates on ESD, Fragmentator, GOAT, IRC, LR-CPCM, L-BFGS, MBIS, meta-GGA TD-DFT gradient, ML-optimized integration grids, 
  MM, NACMEs, nearIR, NEB, NEB-TS, NL-DFT gradient (VV10), 2- and 3-layer-ONIOM, interface openCOSMO-RS, QMMM,   
  Crystal-QMMM, RESP, rigid body optimization, SF, symmetry and pop. for TD-DFT, various functionals, SOLVATOR                                   
                                                                         
[Other institutions]                                                     
  V. Asgeirsson          : NEB                                           
  Christoph Bannwarth    : sTDA-DFT, sTD-DFT, PBEh-3c, B97-3c, D3        
  Giovanni Bistoni       : ETS/NOCV, ADLD/ADEX, COVALED                  
  Martin Brehm           : Molecular dynamics                            
  Ronald Cardenas        : ETS/NOCV                                      
  Martina Colucci        : COVALED                                       
  Sebastian Ehlert       : rSCAN, r2SCAN, r2SCAN-3c, D4, dhf basis sets  
  Marvin Friede          : D4 for Fr, Ra, Ac-Lr                          
  Lars Goerigk           : TD-DFT with DH, B97 family of functionals     
  Stefan Grimme          : VdW corrections, initial TS optimization, DFT functionals, gCP, sTDA/sTD-DF 
  Waldemar Hujo          : DFT-NL                                        
  H. Jonsson             : NEB                                           
  Holger Kruse           : gCP                                           
  Marcel Mueller         : wB97X-3c, vDZP basis set                      
  Hagen Neugebauer       : wr2SCAN, Native XTB                           
  Gianluca Regni         : ADLD/ADEX                                     
  Tobias Risthaus        : pre 6.0 range-separated hybrid DFT and stability analysis
  Lukas Wittmann         : regularized MP2, r2SCAN double-hybrids, wr2SCAN        
                                                                         
We gratefully acknowledge several colleagues who have allowed us to      
interface, adapt or use parts of their codes:                            
  Ed Valeev, F. Pavosevic, A. Kumar             : LibInt (2-el integral package), F12 methods 
  Garnet Chan, S. Sharma, J. Yang, R. Olivares  : DMRG                   
  Ulf Ekstrom                                   : XCFun DFT Library      
  Mihaly Kallay                                 : mrcc  (arbitrary order and MRCC methods)
  Frank Weinhold                                : gennbo (NPA and NBO analysis)           
  Simon Mueller                                 : openCOSMO-RS                            
  Christopher J. Cramer and Donald G. Truhlar   : smd solvation model                     
  S Lehtola, MJT Oliveira, MAL Marques          : LibXC Library                           
  Liviu Ungur et al                             : ANISO software                          


 Your calculation uses the libint2 library for the computation of 2-el integrals
 For citations please refer to: http://libint.valeyev.net

 Your ORCA version has been built with support for libXC version: 7.0.0
 For citations please refer to: https://libxc.gitlab.io

 This ORCA versions uses:
   CBLAS   interface :  Fast vector & matrix operations
   LAPACKE interface :  Fast linear algebra routines
   SCALAPACK package :  Parallel linear algebra routines
   Shared memory     :  Shared parallel matrices
   BLAS/LAPACK       :  OpenBLAS 0.3.29  USE64BITINT DYNAMIC_ARCH NO_AFFINITY Zen SINGLE_THREADED
        Core in use  :  Zen
   Copyright (c) 2011-2014, The OpenBLAS Project


  ***********************************
  * Starting time: Wed Sep 10 13:36:24 2025
  * Host name:     wyk-Server
  * Process ID:    2299524
  * Working dir.:  /home/wyk/Documents/code/openQDC/MGMR/singlepointcalc/69/prod
  ***********************************

Your calculation utilizes the atom-pairwise dispersion correction
with the Becke-Johnson damping scheme (D3BJ)


Warning: RI is on but no J-basis has been assigned. Assigning Def2/J (nothing to worry about!)
================================================================================

----- Orbital basis set information -----
Your calculation utilizes the basis: def2-SVP
   F. Weigend and R. Ahlrichs, Phys. Chem. Chem. Phys. 7, 3297 (2005).

----- AuxJ basis set information -----
Your calculation utilizes the auxiliary basis: def2/J
   H-Rn: F. Weigend, Phys. Chem. Chem. Phys. 8, 1057 (2006).
   Fr-Lr: K. Eichkorn, F. Weigend, O. Treutler, R. Ahlrichs; Theor. Chem. Acc. 97, 119 (1997).

================================================================================
                                        WARNINGS
                       Please study these warnings very carefully!
================================================================================


================================================================================
                                       INPUT FILE
================================================================================
NAME = orca.inp
|  1> ! B3LYP def2-SVP d3 EnGrad 
|  2> %pal nprocs 6 end 
|  3> *xyz 0 1 
|  4> C   1.47645898147958 0.08164988823451 0.23366776879569
|  5> C   0.65140023287841 1.33211201445399 0.0643798339542
|  6> C   -0.66645487743185 1.31930133838826 -0.1769445396288
|  7> C   -1.48010012158388 0.05381014546532 -0.2754272331885
|  8> C   0.72832298715621 -1.17264497154767 -0.23579532882956
|  9> C   -0.72017213668881 -1.16553907644567 0.2622397439596
| 10> H   1.17335193139377 2.29248172106369 0.14486496708488
| 11> H   2.42960040429207 0.18813191091216 -0.31377689979547
| 12> H   1.76379544235085 -0.02417049845813 1.29847818562462
| 13> H   0.7277439370149 -1.20278732904871 -1.3404383049773
| 14> H   1.25403201296051 -2.07990687714479 0.104561466203
| 15> H   -0.71951532367487 -1.13478713443225 1.3668375884388
| 16> H   -1.23735176933591 -2.0951125738772 -0.02709228931641
| 17> H   -2.43375484282584 0.18177991512955 0.26661325780893
| 18> H   -1.76749355947028 -0.11358866194575 -1.33232079937801
| 19> H   -1.19708629851487 2.26879818925273 -0.31125241675569
| 20> *
| 21> 
| 22>                          ****END OF INPUT****
================================================================================

                     *******************************
                     * Energy+Gradient Calculation *
                     *******************************

---------------------------------
CARTESIAN COORDINATES (ANGSTROEM)
---------------------------------
  C      1.476459    0.081650    0.233668
  C      0.651400    1.332112    0.064380
  C     -0.666455    1.319301   -0.176945
  C     -1.480100    0.053810   -0.275427
  C      0.728323   -1.172645   -0.235795
  C     -0.720172   -1.165539    0.262240
  H      1.173352    2.292482    0.144865
  H      2.429600    0.188132   -0.313777
  H      1.763795   -0.024170    1.298478
  H      0.727744   -1.202787   -1.340438
  H      1.254032   -2.079907    0.104561
  H     -0.719515   -1.134787    1.366838
  H     -1.237352   -2.095113   -0.027092
  H     -2.433755    0.181780    0.266613
  H     -1.767494   -0.113589   -1.332321
  H     -1.197086    2.268798   -0.311252

----------------------------
CARTESIAN COORDINATES (A.U.)
----------------------------
  NO LB      ZA    FRAG     MASS         X           Y           Z
   0 C     6.0000    0    12.011    2.790103    0.154296    0.441568
   1 C     6.0000    0    12.011    1.230968    2.517327    0.121660
   2 C     6.0000    0    12.011   -1.259417    2.493118   -0.334377
   3 C     6.0000    0    12.011   -2.796984    0.101686   -0.520482
   4 C     6.0000    0    12.011    1.376331   -2.215978   -0.445589
   5 C     6.0000    0    12.011   -1.360928   -2.202550    0.495561
   6 H     1.0000    0     1.008    2.217314    4.332163    0.273755
   7 H     1.0000    0     1.008    4.591279    0.355518   -0.592952
   8 H     1.0000    0     1.008    3.333090   -0.045676    2.453768
   9 H     1.0000    0     1.008    1.375237   -2.272939   -2.533061
  10 H     1.0000    0     1.008    2.369777   -3.930454    0.197593
  11 H     1.0000    0     1.008   -1.359687   -2.144437    2.582949
  12 H     1.0000    0     1.008   -2.338256   -3.959189   -0.051197
  13 H     1.0000    0     1.008   -4.599130    0.343514    0.503826
  14 H     1.0000    0     1.008   -3.340079   -0.214651   -2.517721
  15 H     1.0000    0     1.008   -2.262165    4.287407   -0.588182

--------------------------------
INTERNAL COORDINATES (ANGSTROEM)
--------------------------------
 C      0   0   0     0.000000000000     0.00000000     0.00000000
 C      1   0   0     1.507659070425     0.00000000     0.00000000
 C      2   1   0     1.339829712492   123.40568422     0.00000000
 C      3   2   1     1.507708653430   123.40793049     1.44724610
 C      1   2   3     1.534066055067   112.14192676    14.04040087
 C      5   1   2     1.531740040371   110.97022300   315.76871751
 H      2   1   3     1.096002466061   117.25195014   180.07378604
 H      1   2   3     1.104315470418   109.67550171   137.03519669
 H      1   2   3     1.107962733928   109.21106603   251.80812398
 H      5   1   2     1.105054298108   109.17589217    75.86093106
 H      5   1   2     1.102423191467   110.23329743   192.69277214
 H      6   5   1     1.105026022937   108.94039613   300.26319988
 H      6   5   1     1.102404047993   110.75633707   183.29298777
 H      4   3   2     1.104373796853   109.67521683   136.95760217
 H      4   3   2     1.107989782947   109.21392981   251.72510476
 H      3   2   1     1.095971067456   119.34148769   181.37622658

---------------------------
INTERNAL COORDINATES (A.U.)
---------------------------
 C      0   0   0     0.000000000000     0.00000000     0.00000000
 C      1   0   0     2.849062746426     0.00000000     0.00000000
 C      2   1   0     2.531911222701   123.40568422     0.00000000
 C      3   2   1     2.849156444726   123.40793049     1.44724610
 C      1   2   3     2.898964715422   112.14192676    14.04040087
 C      5   1   2     2.894569184663   110.97022300   315.76871751
 H      2   1   3     2.071144502958   117.25195014   180.07378604
 H      1   2   3     2.086853804541   109.67550171   137.03519669
 H      1   2   3     2.093746133715   109.21106603   251.80812398
 H      5   1   2     2.088249986537   109.17589217    75.86093106
 H      5   1   2     2.083277915556   110.23329743   192.69277214
 H      6   5   1     2.088196554208   108.94039613   300.26319988
 H      6   5   1     2.083241739633   110.75633707   183.29298777
 H      4   3   2     2.086964025531   109.67521683   136.95760217
 H      4   3   2     2.093797248953   109.21392981   251.72510476
 H      3   2   1     2.071085168193   119.34148769   181.37622658

---------------------
BASIS SET INFORMATION
---------------------
There are 2 groups of distinct atoms

 Group   1 Type C   : 7s4p1d contracted to 3s2p1d pattern {511/31/1}
 Group   2 Type H   : 4s1p contracted to 2s1p pattern {31/1}

Atom   0C    basis set group =>   1
Atom   1C    basis set group =>   1
Atom   2C    basis set group =>   1
Atom   3C    basis set group =>   1
Atom   4C    basis set group =>   1
Atom   5C    basis set group =>   1
Atom   6H    basis set group =>   2
Atom   7H    basis set group =>   2
Atom   8H    basis set group =>   2
Atom   9H    basis set group =>   2
Atom  10H    basis set group =>   2
Atom  11H    basis set group =>   2
Atom  12H    basis set group =>   2
Atom  13H    basis set group =>   2
Atom  14H    basis set group =>   2
Atom  15H    basis set group =>   2
---------------------------------
AUXILIARY/J BASIS SET INFORMATION
---------------------------------
There are 2 groups of distinct atoms

 Group   1 Type C   : 12s5p4d2f1g contracted to 6s4p3d1f1g pattern {711111/2111/211/2/1}
 Group   2 Type H   : 5s2p1d contracted to 3s1p1d pattern {311/2/1}

Atom   0C    basis set group =>   1
Atom   1C    basis set group =>   1
Atom   2C    basis set group =>   1
Atom   3C    basis set group =>   1
Atom   4C    basis set group =>   1
Atom   5C    basis set group =>   1
Atom   6H    basis set group =>   2
Atom   7H    basis set group =>   2
Atom   8H    basis set group =>   2
Atom   9H    basis set group =>   2
Atom  10H    basis set group =>   2
Atom  11H    basis set group =>   2
Atom  12H    basis set group =>   2
Atom  13H    basis set group =>   2
Atom  14H    basis set group =>   2
Atom  15H    basis set group =>   2


           ************************************************************
           *        Program running with 6 parallel MPI-processes     *
           *              working on a common directory               *
           ************************************************************
------------------------------------------------------------------------------
                             ORCA STARTUP CALCULATIONS
                           -- RI-GTO INTEGRALS CHOSEN --
------------------------------------------------------------------------------
------------------------------------------------------------------------------
                   ___                                                        
                  /   \      - P O W E R E D   B Y -                         
                 /     \                                                     
                 |  |  |   _    _      __       _____    __    __             
                 |  |  |  | |  | |    /  \     |  _  \  |  |  /  |          
                  \  \/   | |  | |   /    \    | | | |  |  | /  /          
                 / \  \   | |__| |  /  /\  \   | |_| |  |  |/  /          
                |  |  |   |  __  | /  /__\  \  |    /   |      \           
                |  |  |   | |  | | |   __   |  |    \   |  |\   \          
                \     /   | |  | | |  |  |  |  | |\  \  |  | \   \       
                 \___/    |_|  |_| |__|  |__|  |_| \__\ |__|  \__/        
                                                                              
                      - O R C A' S   B I G   F R I E N D -                    
                                      &                                       
                       - I N T E G R A L  F E E D E R -                       
                                                                              
 v1 FN, 2020, v2 2021, v3 2022-2024                                           
------------------------------------------------------------------------------


----------------------
SHARK INTEGRAL PACKAGE
----------------------

Number of atoms                             ...     16
Number of basis functions                   ...    134
Number of shells                            ...     66
Maximum angular momentum                    ...      2
Integral batch strategy                     ... SHARK/LIBINT Hybrid
RI-J (if used) integral strategy            ... SPLIT-RIJ (Revised 2003 algorithm where possible)
Printlevel                                  ...      1
Contraction scheme used                     ... SEGMENTED contraction
Prescreening option                         ... SCHWARTZ
   Thresh                                   ... 2.500e-11
   Tcut                                     ... 2.500e-12
   Tpresel                                  ... 2.500e-12 
Coulomb Range Separation                    ... NOT USED
Exchange Range Separation                   ... NOT USED
Multipole approximations                    ... NOT USED
Finite Nucleus Model                        ... NOT USED
CABS basis                                  ... NOT available
Auxiliary Coulomb fitting basis             ... AVAILABLE
   # of basis functions in Aux-J            ...    404
   # of shells in Aux-J                     ...    140
   Maximum angular momentum in Aux-J        ...      4
Auxiliary J/K fitting basis                 ... NOT available
Auxiliary Correlation fitting basis         ... NOT available
Auxiliary 'external' fitting basis          ... NOT available

Checking pre-screening integrals            ... done (  0.0 sec) Dimension = 66
   => SHARK Basis and OBASIS are compatible. Storing Pre-screening
Shell pair information
Shell pair cut-off parameter TPreSel        ...   2.5e-12
Total number of shell pairs                 ...      2211
Shell pairs after pre-screening             ...      2181
Total number of primitive shell pairs       ...      7611
Primitive shell pairs kept                  ...      5939
          la=0 lb=0:    732 shell pairs
          la=1 lb=0:    818 shell pairs
          la=1 lb=1:    250 shell pairs
          la=2 lb=0:    228 shell pairs
          la=2 lb=1:    132 shell pairs
          la=2 lb=2:     21 shell pairs

Checking whether 4 symmetric matrices of dimension 134 fit in memory
:Max Core in MB      =   4096.00
 MB in use           =      6.12
 MB left             =   4089.88
 MB needed           =      0.28
 Data fit in memory  = YES
Calculating RI/J V-Matrix + Cholesky decomp.... done (  0.0 sec)
Calculating Nuclear repulsion               ... done (  0.0 sec) ENN=    236.105941888937 Eh

Diagonalization of the overlap matrix:
Smallest eigenvalue                        ... 1.055e-03
Time for diagonalization                   ...    0.003 sec
Threshold for overlap eigenvalues          ... 1.000e-07
Number of eigenvalues below threshold      ... 0
Time for construction of square roots      ...    0.001 sec
Total time needed                          ...    0.005 sec

-------------------
DFT GRID GENERATION
-------------------

General Integration Accuracy     IntAcc      ... 4.388
Radial Grid Type                 RadialGrid  ... OptM3 with GC (2021)
Angular Grid (max. ang.)         AngularGrid ... 4 (Lebedev-302)
Angular grid pruning method      GridPruning ... 4 (adaptive)
Weight generation scheme         WeightScheme... mBecke (2022)
Basis function cutoff            BFCut       ... 1.0000e-11
Integration weight cutoff        WCut        ... 1.0000e-14
Partially contracted basis set               ... off
Rotationally invariant grid construction     ... off
Angular grids for H and He will be reduced by one unit

Total number of grid points                  ...    68085
Total number of batches                      ...     1073
Average number of points per batch           ...       63
Average number of grid points per atom       ...     4255

--------------------
COSX GRID GENERATION
--------------------

GRIDX 1
-------
General Integration Accuracy     IntAcc      ... 3.816
Radial Grid Type                 RadialGrid  ... OptM3 with GC (2021)
Angular Grid (max. ang.)         AngularGrid ... 1 (Lebedev-50)
Angular grid pruning method      GridPruning ... 4 (adaptive)
Weight generation scheme         WeightScheme... mBecke (2022)
Basis function cutoff            BFCut       ... 1.0000e-11
Integration weight cutoff        WCut        ... 1.0000e-14
Partially contracted basis set               ... on
Rotationally invariant grid construction     ... off
Angular grids for H and He will be reduced by one unit

Total number of grid points                  ...     8744
Total number of batches                      ...       80
Average number of points per batch           ...      109
Average number of grid points per atom       ...      546
UseSFitting                                  ... on

GRIDX 2
-------
General Integration Accuracy     IntAcc      ... 4.020
Radial Grid Type                 RadialGrid  ... OptM3 with GC (2021)
Angular Grid (max. ang.)         AngularGrid ... 2 (Lebedev-110)
Angular grid pruning method      GridPruning ... 4 (adaptive)
Weight generation scheme         WeightScheme... mBecke (2022)
Basis function cutoff            BFCut       ... 1.0000e-11
Integration weight cutoff        WCut        ... 1.0000e-14
Partially contracted basis set               ... on
Rotationally invariant grid construction     ... off
Angular grids for H and He will be reduced by one unit

Total number of grid points                  ...    18343
Total number of batches                      ...      152
Average number of points per batch           ...      120
Average number of grid points per atom       ...     1146
UseSFitting                                  ... on

GRIDX 3
-------
General Integration Accuracy     IntAcc      ... 4.338
Radial Grid Type                 RadialGrid  ... OptM3 with GC (2021)
Angular Grid (max. ang.)         AngularGrid ... 3 (Lebedev-194)
Angular grid pruning method      GridPruning ... 4 (adaptive)
Weight generation scheme         WeightScheme... mBecke (2022)
Basis function cutoff            BFCut       ... 1.0000e-11
Integration weight cutoff        WCut        ... 1.0000e-14
Partially contracted basis set               ... on
Rotationally invariant grid construction     ... off
Angular grids for H and He will be reduced by one unit

Total number of grid points                  ...    40046
Total number of batches                      ...      321
Average number of points per batch           ...      124
Average number of grid points per atom       ...     2503
UseSFitting                                  ... on
Grids setup in   0.9 sec
Initializing property integral containers    ... done (  0.0 sec)

SHARK setup successfully completed in   1.0 seconds

Maximum memory used throughout the entire STARTUP-calculation: 18.3 MB


           ************************************************************
           *        Program running with 6 parallel MPI-processes     *
           *              working on a common directory               *
           ************************************************************
-------------------------------------------------------------------------------
                                 ORCA GUESS
                   Start orbitals & Density for SCF / CASSCF
-------------------------------------------------------------------------------

------------
SCF SETTINGS
------------
Hamiltonian:
 Density Functional     Method          .... DFT(GTOs)
 Exchange Functional    Exchange        .... B88
   X-Alpha parameter    XAlpha          ....  0.666667
   Becke's b parameter  XBeta           ....  0.004200
 Correlation Functional Correlation     .... LYP
 LDA part of GGA corr.  LDAOpt          .... VWN-5
 Gradients option       PostSCFGGA      .... off
 Hybrid DFT is turned on
   Fraction HF Exchange ScalHFX         ....  0.200000
   Scaling of DF-GGA-X  ScalDFX         ....  0.720000
   Scaling of DF-GGA-C  ScalDFC         ....  0.810000
   Scaling of DF-LDA-C  ScalLDAC        ....  1.000000
   Perturbative correction              ....  0.000000
   NL short-range parameter             ....  4.800000
 RI-approximation to the Coulomb term is turned on
   Number of AuxJ basis functions       .... 404
   RIJ-COSX (HFX calculated with COS-X)).... on


General Settings:
 Integral files         IntName         .... orca
 Hartree-Fock type      HFTyp           .... RHF
 Total Charge           Charge          ....    0
 Multiplicity           Mult            ....    1
 Number of Electrons    NEL             ....   46
 Basis Dimension        Dim             ....  134
 Nuclear Repulsion      ENuc            ....    236.1059418889 Eh

Convergence Acceleration:
 AO-DIIS                CNVDIIS         .... on
   Start iteration      DIISMaxIt       ....    12
   Startup error        DIISStart       ....  0.200000
   # of expansion vecs  DIISMaxEq       ....     5
   Bias factor          DIISBfac        ....   1.050
   Max. coefficient     DIISMaxC        ....  10.000
 MO-DIIS                CNVKDIIS        .... off
 Trust-Rad. Augm. Hess. CNVTRAH         .... auto
   Auto Start mean grad. ratio tolernc. ....  1.125000
   Auto Start start iteration           ....    50
   Auto Start num. interpolation iter.  ....    10
   Max. Number of Micro iterations      ....    24
   Max. Number of Macro iterations      .... Maxiter - #DIIS iter
   Number of Davidson start vectors     ....     2
   Converg. threshold    (grad. norm)   ....   1.000e-05
   Grad. Scal. Fac. for Micro threshold ....   0.100
   Minimum threshold for Micro iter.    ....   1.000e-02
   NR start threshold (gradient norm)   ....   1.000e-04
   Initial trust radius                 ....   0.400
   Minimum AH scaling param. (alpha)    ....   1.000
   Maximum AH scaling param. (alpha)    .... 1000.000
   Quad. conv. algorithm                .... NR
   White noise on init. David. guess    .... on
   Maximum white noise                  ....   0.010
   Pseudo random numbers                .... off
   Inactive MOs                         .... canonical
   Orbital update algorithm             .... Taylor
   Preconditioner                       .... Diag
   Full preconditioner red. dimension   ....   250
 SOSCF                 CNVSOSCF           .... on
   Start iteration     SOSCFMaxIt         ....   150
   Startup grad/error  SOSCFStart         ....  0.003300
   Hessian update      SOSCFHessUp        .... L-BFGS
   Autom. constraints  SOSCFAutoConstrain .... off
 Level Shifting         CNVShift        .... on
   Level shift para.    LevelShift      ....    0.2500
   Turn off err/grad.   ShiftErr        ....    0.0010
 Zerner damping         CNVZerner       .... off
 Static damping         CNVDamp         .... on
   Fraction old density DampFac         ....    0.7000
   Max. Damping (<1)    DampMax         ....    0.9800
   Min. Damping (>=0)   DampMin         ....    0.0000
   Turn off err/grad.   DampErr         ....    0.1000

SCF Procedure:
 Maximum # iterations   MaxIter         ....   125
 SCF integral mode      SCFMode         .... Direct
   Integral package                     .... SHARK and LIBINT hybrid scheme
 Reset frequency        DirectResetFreq ....    20
 Integral Threshold     Thresh          ....  2.500e-11 Eh
 Primitive CutOff       TCut            ....  2.500e-12 Eh

Convergence Tolerance:
 Convergence Check Mode ConvCheckMode   .... Total+1el-Energy
 Convergence forced     ConvForced      .... 0
 Energy Change          TolE            ....  1.000e-08 Eh
 1-El. energy change                    ....  1.000e-05 Eh
 Orbital Gradient       TolG            ....  1.000e-05
 Orbital Rotation angle TolX            ....  1.000e-05
 DIIS Error             TolErr          ....  5.000e-07

------------------------------
INITIAL GUESS: MODEL POTENTIAL
------------------------------
Loading Hartree-Fock densities                     ... done
Calculating cut-offs                               ... done
Initializing the effective Hamiltonian             ... done
Setting up the integral package (SHARK)            ... done
Starting the Coulomb interaction                   ... done (   0.0 sec)
Making the grid                                    ... done (   0.1 sec)
Mapping shells                                     ... done
Starting the XC term evaluation                    ... done (   0.0 sec)
  promolecular density results
     # of electrons  =     45.993813570
     EX              =    -33.803209596
     EC              =     -1.481118913
     EX+EC           =    -35.284328509
Transforming the Hamiltonian                       ... done (   0.0 sec)
Diagonalizing the Hamiltonian                      ... done (   0.0 sec)
Back transforming the eigenvectors                 ... done (   0.0 sec)
Now organizing SCF variables                       ... done
                      ------------------
                      INITIAL GUESS DONE (   0.2 sec)
                      ------------------
             **** ENERGY FILE WAS UPDATED (orca.en.tmp) ****
Finished Guess after   0.3 sec
Maximum memory used throughout the entire GUESS-calculation: 8.7 MB


           ************************************************************
           *        Program running with 6 parallel MPI-processes     *
           *              working on a common directory               *
           ************************************************************

-------------------------------------------------------------------------------------------
                                      ORCA LEAN-SCF
                              memory conserving SCF solver
-------------------------------------------------------------------------------------------

----------------------------------------D-I-I-S--------------------------------------------
Iteration    Energy (Eh)           Delta-E    RMSDP     MaxDP     DIISErr   Damp  Time(sec)
-------------------------------------------------------------------------------------------
               ***  Starting incremental Fock matrix formation  ***
    1    -234.1313687856512900     0.00e+00  8.68e-03  6.67e-02  1.42e-01  0.700   0.9
    2    -234.2149662912836163    -8.36e-02  6.23e-03  4.11e-02  7.54e-02  0.700   0.5
                               ***Turning on AO-DIIS***
    3    -234.2493499164943103    -3.44e-02  2.75e-03  1.33e-02  2.99e-02  0.700   0.5
    4    -234.2693203597276295    -2.00e-02  5.16e-03  2.54e-02  1.52e-02  0.000   0.5
    5    -234.3126983606353235    -4.34e-02  8.02e-04  3.95e-03  5.01e-03  0.000   0.5
                              *** Initializing SOSCF ***
---------------------------------------S-O-S-C-F--------------------------------------
Iteration    Energy (Eh)           Delta-E    RMSDP     MaxDP     MaxGrad    Time(sec)
--------------------------------------------------------------------------------------
    6    -234.3129512082881831    -2.53e-04  3.03e-04  1.44e-03  1.31e-03     0.5
               *** Restarting incremental Fock matrix formation ***
    7    -234.3129261522445006     2.51e-05  2.03e-04  9.58e-04  2.20e-04     0.9
    8    -234.3129268191663925    -6.67e-07  4.49e-05  2.98e-04  2.00e-04     0.7
    9    -234.3129277827003136    -9.64e-07  2.51e-05  1.17e-04  2.75e-05     0.7
   10    -234.3129278131078479    -3.04e-08  7.83e-06  3.55e-05  1.52e-05     0.6
   11    -234.3129278263296271    -1.32e-08  2.33e-06  1.25e-05  4.26e-06     0.6
   12    -234.3129278252300480     1.10e-09  1.22e-06  5.62e-06  3.47e-06     0.5
                 **** Energy Check signals convergence ****

               *****************************************************
               *                     SUCCESS                       *
               *           SCF CONVERGED AFTER  12 CYCLES          *
               *****************************************************

Recomputing exchange energy using gridx3       ... done (    1.281 sec)
Old exchange energy                            :     -6.919543038 Eh
New exchange energy                            :     -6.919595618 Eh
Exchange energy change after final integration :     -0.000052580 Eh
Total energy after final integration           :   -234.312980406 Eh
             **** ENERGY FILE WAS UPDATED (orca.en.tmp) ****

----------------
TOTAL SCF ENERGY
----------------

Total Energy       :       -234.31298040555777 Eh           -6375.98035 eV

Components:
Nuclear Repulsion  :        236.10594188893705 Eh            6424.76931 eV
Electronic Energy  :       -470.41886971491601 Eh          -12800.74822 eV
One Electron Energy:       -781.73651726086462 Eh          -21272.13209 eV
Two Electron Energy:        311.31764754594860 Eh            8471.38387 eV

Virial components:
Potential Energy   :       -465.81225789786390 Eh          -12675.39594 eV
Kinetic Energy     :        231.49927749230613 Eh            6299.41560 eV
Virial Ratio       :          2.01215426218056

DFT components:
N(Alpha)           :       22.999962535511 electrons
N(Beta)            :       22.999962535511 electrons
N(Total)           :       45.999925071022 electrons
E(X)               :      -27.410840581985 Eh       
E(C)               :       -1.755401304241 Eh       
E(XC)              :      -29.166241886226 Eh       

---------------
SCF CONVERGENCE
---------------

  Last Energy change         ...   -1.0996e-09  Tolerance :   1.0000e-08
  Last MAX-Density change    ...    5.6205e-06  Tolerance :   1.0000e-07
  Last RMS-Density change    ...    1.2233e-06  Tolerance :   5.0000e-09
  Last DIIS Error            ...    1.3135e-03  Tolerance :   5.0000e-07
  Last Orbital Gradient      ...    3.4703e-06  Tolerance :   1.0000e-05
  Last Orbital Rotation      ...    3.0332e-06  Tolerance :   1.0000e-05


----------------
ORBITAL ENERGIES
----------------

  NO   OCC          E(Eh)            E(eV) 
   0   2.0000     -10.180163      -277.0163 
   1   2.0000     -10.180142      -277.0158 
   2   2.0000     -10.176770      -276.9240 
   3   2.0000     -10.176685      -276.9217 
   4   2.0000     -10.174458      -276.8611 
   5   2.0000     -10.173767      -276.8423 
   6   2.0000      -0.819057       -22.2877 
   7   2.0000      -0.727787       -19.8041 
   8   2.0000      -0.725831       -19.7509 
   9   2.0000      -0.606660       -16.5081 
  10   2.0000      -0.586276       -15.9534 
  11   2.0000      -0.499989       -13.6054 
  12   2.0000      -0.486430       -13.2364 
  13   2.0000      -0.438457       -11.9310 
  14   2.0000      -0.420020       -11.4293 
  15   2.0000      -0.403681       -10.9847 
  16   2.0000      -0.385372       -10.4865 
  17   2.0000      -0.375551       -10.2193 
  18   2.0000      -0.373962       -10.1760 
  19   2.0000      -0.322450        -8.7743 
  20   2.0000      -0.314205        -8.5500 
  21   2.0000      -0.302208        -8.2235 
  22   2.0000      -0.237778        -6.4703 
  23   0.0000       0.024419         0.6645 
  24   0.0000       0.057373         1.5612 
  25   0.0000       0.090516         2.4631 
  26   0.0000       0.096112         2.6153 
  27   0.0000       0.100192         2.7264 
  28   0.0000       0.127876         3.4797 
  29   0.0000       0.131421         3.5761 
  30   0.0000       0.139590         3.7984 
  31   0.0000       0.153964         4.1896 
  32   0.0000       0.157540         4.2869 
  33   0.0000       0.171790         4.6747 
*Only the first 10 virtual orbitals were printed.

                    ********************************
                    * MULLIKEN POPULATION ANALYSIS *
                    ********************************

-----------------------
MULLIKEN ATOMIC CHARGES
-----------------------
   0 C :    0.086705
   1 C :   -0.080664
   2 C :   -0.080536
   3 C :    0.086639
   4 C :    0.009209
   5 C :    0.009388
   6 H :   -0.014422
   7 H :    0.000499
   8 H :    0.006505
   9 H :   -0.000826
  10 H :   -0.007068
  11 H :   -0.000863
  12 H :   -0.007194
  13 H :    0.000550
  14 H :    0.006496
  15 H :   -0.014416
Sum of atomic charges:    0.0000000

--------------------------------
MULLIKEN REDUCED ORBITAL CHARGES
--------------------------------
  0 C s       :     2.939545  s :     2.939545
      pz      :     0.987485  p :     2.937121
      px      :     0.992803
      py      :     0.956833
      dz2     :     0.008563  d :     0.036629
      dxz     :     0.006535
      dyz     :     0.004885
      dx2y2   :     0.008351
      dxy     :     0.008296

  1 C s       :     3.159157  s :     3.159157
      pz      :     1.009077  p :     2.886508
      px      :     0.974276
      py      :     0.903154
      dz2     :     0.003010  d :     0.034999
      dxz     :     0.007025
      dyz     :     0.002283
      dx2y2   :     0.010311
      dxy     :     0.012370

  2 C s       :     3.159119  s :     3.159119
      pz      :     1.009000  p :     2.886418
      px      :     0.973383
      py      :     0.904035
      dz2     :     0.002904  d :     0.034999
      dxz     :     0.006997
      dyz     :     0.002424
      dx2y2   :     0.010250
      dxy     :     0.012424

  3 C s       :     2.939512  s :     2.939512
      pz      :     0.987139  p :     2.937222
      px      :     0.992936
      py      :     0.957147
      dz2     :     0.008427  d :     0.036627
      dxz     :     0.006547
      dyz     :     0.005129
      dx2y2   :     0.008266
      dxy     :     0.008258

  4 C s       :     3.015610  s :     3.015610
      pz      :     0.988137  p :     2.938772
      px      :     0.965994
      py      :     0.984641
      dz2     :     0.010691  d :     0.036408
      dxz     :     0.005103
      dyz     :     0.003706
      dx2y2   :     0.007552
      dxy     :     0.009356

  5 C s       :     3.015378  s :     3.015378
      pz      :     0.989187  p :     2.938826
      px      :     0.965879
      py      :     0.983760
      dz2     :     0.010871  d :     0.036408
      dxz     :     0.005152
      dyz     :     0.003529
      dx2y2   :     0.007569
      dxy     :     0.009287

  6 H s       :     0.992012  s :     0.992012
      pz      :     0.004697  p :     0.022410
      px      :     0.006046
      py      :     0.011668

  7 H s       :     0.977259  s :     0.977259
      pz      :     0.007173  p :     0.022242
      px      :     0.011126
      py      :     0.003943

  8 H s       :     0.971054  s :     0.971054
      pz      :     0.013083  p :     0.022441
      px      :     0.005317
      py      :     0.004041

  9 H s       :     0.978806  s :     0.978806
      pz      :     0.013626  p :     0.022020
      px      :     0.004052
      py      :     0.004342

 10 H s       :     0.985149  s :     0.985149
      pz      :     0.005484  p :     0.021919
      px      :     0.005990
      py      :     0.010444

 11 H s       :     0.978840  s :     0.978840
      pz      :     0.013603  p :     0.022023
      px      :     0.004047
      py      :     0.004372

 12 H s       :     0.985273  s :     0.985273
      pz      :     0.005225  p :     0.021922
      px      :     0.005919
      py      :     0.010778

 13 H s       :     0.977209  s :     0.977209
      pz      :     0.007111  p :     0.022241
      px      :     0.011130
      py      :     0.004000

 14 H s       :     0.971066  s :     0.971066
      pz      :     0.012941  p :     0.022439
      px      :     0.005315
      py      :     0.004183

 15 H s       :     0.992006  s :     0.992006
      pz      :     0.004798  p :     0.022411
      px      :     0.006132
      py      :     0.011480



                     *******************************
                     * LOEWDIN POPULATION ANALYSIS *
                     *******************************

----------------------
LOEWDIN ATOMIC CHARGES
----------------------
   0 C :   -0.036174
   1 C :   -0.045353
   2 C :   -0.045340
   3 C :   -0.036177
   4 C :   -0.030997
   5 C :   -0.030995
   6 H :    0.020248
   7 H :    0.026222
   8 H :    0.027101
   9 H :    0.019501
  10 H :    0.019453
  11 H :    0.019497
  12 H :    0.019432
  13 H :    0.026248
  14 H :    0.027092
  15 H :    0.020245

-------------------------------
LOEWDIN REDUCED ORBITAL CHARGES
-------------------------------
  0 C s       :     2.836352  s :     2.836352
      pz      :     1.051532  p :     3.109448
      px      :     1.031540
      py      :     1.026376
      dz2     :     0.021363  d :     0.090374
      dxz     :     0.016379
      dyz     :     0.010637
      dx2y2   :     0.019586
      dxy     :     0.022409

  1 C s       :     2.874228  s :     2.874228
      pz      :     0.986457  p :     3.082911
      px      :     1.075679
      py      :     1.020774
      dz2     :     0.006757  d :     0.088214
      dxz     :     0.014206
      dyz     :     0.004304
      dx2y2   :     0.028283
      dxy     :     0.034664

  2 C s       :     2.874229  s :     2.874229
      pz      :     0.986480  p :     3.082900
      px      :     1.075709
      py      :     1.020710
      dz2     :     0.006560  d :     0.088212
      dxz     :     0.014176
      dyz     :     0.004595
      dx2y2   :     0.028138
      dxy     :     0.034743

  3 C s       :     2.836375  s :     2.836375
      pz      :     1.051047  p :     3.109438
      px      :     1.031517
      py      :     1.026874
      dz2     :     0.020783  d :     0.090364
      dxz     :     0.016441
      dyz     :     0.011536
      dx2y2   :     0.019323
      dxy     :     0.022282

  4 C s       :     2.840321  s :     2.840321
      pz      :     1.050790  p :     3.102201
      px      :     1.023695
      py      :     1.027716
      dz2     :     0.026622  d :     0.088475
      dxz     :     0.011444
      dyz     :     0.008523
      dx2y2   :     0.019337
      dxy     :     0.022550

  5 C s       :     2.840304  s :     2.840304
      pz      :     1.049738  p :     3.102214
      px      :     1.023541
      py      :     1.028935
      dz2     :     0.026954  d :     0.088477
      dxz     :     0.011561
      dyz     :     0.008202
      dx2y2   :     0.019355
      dxy     :     0.022406

  6 H s       :     0.912880  s :     0.912880
      pz      :     0.014782  p :     0.066873
      px      :     0.017114
      py      :     0.034977

  7 H s       :     0.909542  s :     0.909542
      pz      :     0.019116  p :     0.064236
      px      :     0.032288
      py      :     0.012832

  8 H s       :     0.908795  s :     0.908795
      pz      :     0.037232  p :     0.064105
      px      :     0.014153
      py      :     0.012720

  9 H s       :     0.916432  s :     0.916432
      pz      :     0.039326  p :     0.064068
      px      :     0.012593
      py      :     0.012149

 10 H s       :     0.916343  s :     0.916343
      pz      :     0.014692  p :     0.064204
      px      :     0.018912
      py      :     0.030599

 11 H s       :     0.916431  s :     0.916431
      pz      :     0.039325  p :     0.064072
      px      :     0.012599
      py      :     0.012148

 12 H s       :     0.916360  s :     0.916360
      pz      :     0.013993  p :     0.064207
      px      :     0.018720
      py      :     0.031494

 13 H s       :     0.909524  s :     0.909524
      pz      :     0.018983  p :     0.064229
      px      :     0.032306
      py      :     0.012939

 14 H s       :     0.908810  s :     0.908810
      pz      :     0.036876  p :     0.064098
      px      :     0.014149
      py      :     0.013073

 15 H s       :     0.912876  s :     0.912876
      pz      :     0.015051  p :     0.066879
      px      :     0.017331
      py      :     0.034497



                      *****************************
                      * MAYER POPULATION ANALYSIS *
                      *****************************

  NA   - Mulliken gross atomic population
  ZA   - Total nuclear charge
  QA   - Mulliken gross atomic charge
  VA   - Mayer's total valence
  BVA  - Mayer's bonded valence
  FA   - Mayer's free valence

  ATOM       NA         ZA         QA         VA         BVA        FA
  0 C      5.9133     6.0000     0.0867     3.9848     3.9848     0.0000
  1 C      6.0807     6.0000    -0.0807     4.0271     4.0271     0.0000
  2 C      6.0805     6.0000    -0.0805     4.0270     4.0270     0.0000
  3 C      5.9134     6.0000     0.0866     3.9849     3.9849    -0.0000
  4 C      5.9908     6.0000     0.0092     4.1011     4.1011     0.0000
  5 C      5.9906     6.0000     0.0094     4.1011     4.1011     0.0000
  6 H      1.0144     1.0000    -0.0144     0.9796     0.9796     0.0000
  7 H      0.9995     1.0000     0.0005     0.9767     0.9767    -0.0000
  8 H      0.9935     1.0000     0.0065     0.9790     0.9790    -0.0000
  9 H      1.0008     1.0000    -0.0008     0.9756     0.9756    -0.0000
 10 H      1.0071     1.0000    -0.0071     0.9735     0.9735     0.0000
 11 H      1.0009     1.0000    -0.0009     0.9756     0.9756     0.0000
 12 H      1.0072     1.0000    -0.0072     0.9735     0.9735     0.0000
 13 H      0.9995     1.0000     0.0005     0.9767     0.9767     0.0000
 14 H      0.9935     1.0000     0.0065     0.9790     0.9790    -0.0000
 15 H      1.0144     1.0000    -0.0144     0.9796     0.9796     0.0000

  Mayer bond orders larger than 0.100000
B(  0-C ,  1-C ) :   1.0310 B(  0-C ,  4-C ) :   1.0909 B(  0-C ,  7-H ) :   0.9290 
B(  0-C ,  8-H ) :   0.9199 B(  1-C ,  2-C ) :   1.9503 B(  1-C ,  6-H ) :   0.9601 
B(  2-C ,  3-C ) :   1.0310 B(  2-C , 15-H ) :   0.9601 B(  3-C ,  5-C ) :   1.0910 
B(  3-C , 13-H ) :   0.9290 B(  3-C , 14-H ) :   0.9199 B(  4-C ,  5-C ) :   1.0828 
B(  4-C ,  9-H ) :   0.9451 B(  4-C , 10-H ) :   0.9358 B(  5-C , 11-H ) :   0.9451 
B(  5-C , 12-H ) :   0.9358 

-------
TIMINGS
-------

Total SCF time: 0 days 0 hours 0 min 9 sec 

Total time                  ....       9.382 sec
Sum of individual times     ....       8.870 sec  ( 94.5%)

SCF preparation             ....       0.184 sec  (  2.0%)
Fock matrix formation       ....       8.469 sec  ( 90.3%)
  Startup                   ....       0.005 sec  (  0.1% of F)
  Split-RI-J                ....       0.709 sec  (  8.4% of F)
  Chain of spheres X        ....       6.390 sec  ( 75.4% of F)
  XC integration            ....       1.710 sec  ( 20.2% of F)
    XC Preparation          ....       0.000 sec  (  0.0% of XC)
    Basis function eval.    ....       0.522 sec  ( 30.5% of XC)
    Density eval.           ....       0.305 sec  ( 17.8% of XC)
    XC-Functional eval.     ....       0.088 sec  (  5.1% of XC)
    XC-Potential eval.      ....       0.345 sec  ( 20.2% of XC)
Diagonalization             ....       0.000 sec  (  0.0%)
Density matrix formation    ....       0.027 sec  (  0.3%)
Total Energy calculation    ....       0.015 sec  (  0.2%)
Population analysis         ....       0.018 sec  (  0.2%)
Orbital Transformation      ....       0.016 sec  (  0.2%)
Orbital Orthonormalization  ....       0.000 sec  (  0.0%)
DIIS solution               ....       0.075 sec  (  0.8%)
SOSCF solution              ....       0.066 sec  (  0.7%)
Finished LeanSCF after   9.4 sec

Maximum memory used throughout the entire LEANSCF-calculation: 12.2 MB


-------------------------------------------------------------------------------
                          DFT DISPERSION CORRECTION                            
                                                                               
                              DFTD3 V3.1  Rev 1                                
                          USING Becke-Johnson damping                          
-------------------------------------------------------------------------------
The B3LYP functional is recognized
Active option DFTDOPT                   ...         4   

molecular C6(AA) [au] = 1998.079147 


            DFT-D V3
 parameters
 s6 scaling factor         :     1.0000 
 a1 scaling factor         :     0.3981 
 s8 scaling factor         :     1.9889 
 a2 scaling factor         :     4.4211 
 ad hoc parameters k1-k3   :    16.0000     1.3333    -4.0000 

 Edisp/kcal,au: -14.649924111416  -0.023346137635 
 E6   /kcal   :  -7.061140927 
 E8   /kcal   :  -7.588783184 
 % E8         :  51.800836144 

-------------------------   ----------------
Dispersion correction           -0.023346138
-------------------------   ----------------


-------------------------   --------------------
FINAL SINGLE POINT ENERGY      -234.336326543193
-------------------------   --------------------



           ************************************************************
           *        Program running with 6 parallel MPI-processes     *
           *              working on a common directory               *
           ************************************************************
------------------------------------------------------------------------------
                         ORCA SCF GRADIENT CALCULATION
------------------------------------------------------------------------------

Nuc. rep. gradient        (SHARK) ... done (  0.0 sec)
HCore & Overlap gradient  (SHARK) ... done (  0.0 sec)
Split-RIJ-J gradient      (SHARK) ... done (  0.3 sec)
done (  5.3 sec)
XC gradient                       ... done (  1.0 sec)
Dispersion correction             ... done (  0.1 sec)

-------------------
DISPERSION GRADIENT
-------------------

   1   C   :    0.000491874    0.000051524    0.000069655
   2   C   :    0.000308728    0.000569032    0.000040420
   3   C   :   -0.000313917    0.000563047   -0.000072094
   4   C   :   -0.000492455    0.000043043   -0.000072198
   5   C   :    0.000261154   -0.000366801   -0.000042042
   6   C   :   -0.000257644   -0.000366296    0.000062387
   7   H   :    0.000111826    0.000267881    0.000017220
   8   H   :    0.000314281    0.000025165   -0.000024534
   9   H   :    0.000310418    0.000011543    0.000196466
  10   H   :    0.000169360   -0.000266843   -0.000239878
  11   H   :    0.000163724   -0.000281337   -0.000007356
  12   H   :   -0.000166854   -0.000254716    0.000254311
  13   H   :   -0.000161120   -0.000282044    0.000022961
  14   H   :   -0.000314519    0.000023559    0.000023389
  15   H   :   -0.000310582   -0.000002221   -0.000196514
  16   H   :   -0.000114276    0.000265465   -0.000032194

Difference to translation invariance:
           :    0.0000000000    0.0000000000   -0.0000000000

Difference to rotation invariance:
           :    0.0000000000   -0.0000000000    0.0000000000

Norm of the Dispersion gradient    ...    0.0017075404
RMS gradient                       ...    0.0002464622
MAX gradient                       ...    0.0005690323

------------------
CARTESIAN GRADIENT
------------------

   1   C   :    0.000012706    0.000027046   -0.000040979
   2   C   :   -0.000080620   -0.000061368    0.000039133
   3   C   :    0.000100294   -0.000017018   -0.000019671
   4   C   :   -0.000025655    0.000016050    0.000042082
   5   C   :   -0.000040795   -0.000016753   -0.000044316
   6   C   :    0.000084611    0.000050803    0.000004993
   7   H   :   -0.000024010    0.000015566   -0.000021324
   8   H   :   -0.000079090    0.000042272    0.000034259
   9   H   :   -0.000011434   -0.000041249    0.000009273
  10   H   :   -0.000112704    0.000009152    0.000008720
  11   H   :    0.000040394    0.000015636    0.000112990
  12   H   :    0.000092105   -0.000035926   -0.000021354
  13   H   :   -0.000038433    0.000008441   -0.000086428
  14   H   :    0.000057668    0.000021825   -0.000012513
  15   H   :   -0.000010193   -0.000036404   -0.000020413
  16   H   :    0.000035154    0.000001927    0.000015546

Difference to translation invariance:
           :    0.0000000000    0.0000000000    0.0000000000

Difference to rotation invariance:
           :    0.0001441656    0.0000998960    0.0000273317

Norm of the Cartesian gradient     ...    0.0003284983
RMS gradient                       ...    0.0000474146
MAX gradient                       ...    0.0001129899

-------
TIMINGS
-------

Total SCF gradient time     ....        6.643 sec

Densities                   ....       0.000 sec  (  0.0%)
One electron gradient       ....       0.047 sec  (  0.7%)
RI-J Coulomb gradient       ....       0.252 sec  (  3.8%)
COSX gradient               ....       5.290 sec  ( 79.6%)
XC gradient                 ....       1.001 sec  ( 15.1%)

Maximum memory used throughout the entire SCFGRAD-calculation: 28.6 MB


           ************************************************************
           *        Program running with 6 parallel MPI-processes     *
           *              working on a common directory               *
           ************************************************************

------------------------------------------------------------------------------
                              ORCA PROPERTY CALCULATIONS
------------------------------------------------------------------------------

GBWName                                 ... orca.gbw
Number of atoms                         ...     16
Number of basis functions               ...    134
Max core memory                         ...   4096 MB

Electric properties:
Dipole moment                           ... YES
Quadrupole moment                       ...  NO
Static polarizability (Dipole/Dipole)   ...  NO
Static polarizability (Dipole/Quad.)    ...  NO
Static polarizability (Quad./Quad.)     ...  NO
Static polarizability (Velocity)        ...  NO
Static hyperpolarizability              ...  NO

Atomic electric properties:
Dipole moment                           ...  NO
Quadrupole moment                       ...  NO
Static polarizability                   ...  NO

Choice of electric origin               ... Center of mass
Position of electric origin             ...    -0.003068     0.084111    -0.038662

General magnetic properties:
Magnetizability                         ...  NO

EPR properties:
g-Tensor (aka g-matrix)                 ...  NO
Zero-Field splitting spin-orbit         ...  NO
Zero-field splitting spin-spin          ...  NO
Hyperfine couplings                     ...  NO (   0 nuclei)
Quadrupole couplings                    ...  NO (   0 nuclei)
Contact density                         ...  NO (   0 nuclei)

NMR properties:
Chemical shifts                         ...  NO (   0 nuclei)
Spin-rotation constants                 ...  NO (   0 nuclei)
Spin-spin couplings                     ...  NO (   0 nuclei,    0 pairs)

Choice of magnetic origin               ... GIAO
Position of magnetic origin             ...     0.000000     0.000000     0.000000

Properties with geometric perturbations:
SCF Hessian                             ...  NO
IR spectrum                             ...  NO
VCD spectrum                            ...  NO
X-ray spectroscopy properties:
SCF XES/XAS/RIXS spectra                ...  NO

SCF SOC stabilization energy            ...  NO
Diagonal Born-Oppenheimer correction    ...  NO

-------------
DIPOLE MOMENT
-------------

Method             : SCF
Type of density    : Electron Density
Multiplicity       :   1
Irrep              :   0
Energy             :  -234.3129804055577665 Eh
Basis              : AO
                                X                 Y                 Z
Electronic contribution:     -0.008492443       1.926572017      -0.054256878
Nuclear contribution   :      0.008968679      -2.030456041       0.057290903
                        -----------------------------------------
Total Dipole Moment    :      0.000476236      -0.103884024       0.003034024
                        -----------------------------------------
Magnitude (a.u.)       :      0.103929411
Magnitude (Debye)      :      0.264167569



--------------------
Rotational spectrum 
--------------------
 
Rotational constants in cm-1:             0.157209             0.151025             0.084818 
Rotational constants in MHz :          4712.997397          4527.609654          2542.784894 

Dipole components along the rotational axes: 
x,y,z [a.u.] :    -0.000049    -0.103929     0.000137 
x,y,z [Debye]:    -0.000124    -0.264167     0.000348 

 

Dipole moment calculation done in   0.0 sec 

Maximum memory used throughout the entire PROP-calculation: 6.8 MB

--------------------------------
SUGGESTED CITATIONS FOR THIS RUN
--------------------------------

Below you find a list of papers that are relevant to this ORCA run
We neither can nor want to force you to cite these papers, but we appreciate if you do
You receive ORCA, which is the product of decades of hard work by many enthusiastic individuals, for free
The only thing we kindly ask in return is that you cite our papers,
We deeply appreciate it, if you show your appreciation for ORCA by not just citing the generic ORCA reference.

Please note that relegating all ORCA citations to the supporting information does *not* help us.
SI sections are not indexed - citations you put there will not count into any citation statistics
But we need these citations in order to attract the funding resources that allow us to do what we are doing

Therefore, if you are a happy ORCA user, please consider citing a few of the papers listed below in the main body of your paper

In addition to the list printed below, the program has created the file orca.bibtex that contains the list in bibtex format
You can import this file easily into all common literature databanks and citation aid programs


List of essential papers. We consider these as the minimum necessary citations

  1. Neese, F.
     Software update: the ORCA program system, version 6.0
     WIRES Comput. Molec. Sci. 2025 15(1), e70019
     doi.org/10.1002/wcms.7019

List of papers to cite with high priority. The work reported in these papers was absolutely
necessary for this run to complete.
Our perspective: the developers of density functionals and basis sets usually get cited in chemistry papers
Good! But without the algorithms to do something with them, the functionals or basis sets would not do anything.
Hence, in our opinion, the algorithm design and method developments papers are equally worthy of getting cited

  1. Neese, F.
     An improvement of the resolution of the identity approximation for the formation of the Coulomb matrix
     J. Comp. Chem. 2003 24(14), 1740-1747
     doi.org/10.1002/jcc.10318
  2. Neese, F.; Wennmohs, F.; Hansen, A.; Becker, U.
     Efficient, approximate and parallel Hartree-Fock and hybrid DFT calculations. A 'chain-of-spheres' algorithm for the Hartree-Fock exchange
     Chem. Phys. 2009 356(1-3), 98-109
     doi.org/10.1016/j.chemphys.2008.10.036
  3. Grimme, S.; Antony, J.; Ehrlich, S.; Krieg, H.
     A consistent and accurate ab initio parametrization of density functional dispersion correction (DFT-D) for the 94 elements H-Pu
     J. Chem. Phys. 2010 132 , 154104
     doi.org/10.1063/1.3382344
  4. Grimme, S.; Ehrlich, S.; Goerigk, L.
     Effect of the damping function in dispersion corrected density functional theory
     J. Comput. Chem. 2011 32(7), 1456-1465
     doi.org/10.1002/jcc.21759
  5. Helmich-Paris, B.; de Souza, B.; Neese, F.; Izsák, R.
     An improved chain of spheres for exchange algorithm
     J. Chem. Phys. 2021 155(10), 104109
     doi.org/10.1063/5.0058766
  6. Neese, F.
     The SHARK Integral Generation and Digestion System
     J. Comp. Chem. 2022 44(3), 381
     doi.org/10.1002/jcc.26942

List of suggested additional citations. These are papers that are important in the 'surrounding' of 
of this run, or papers that preceded the highly important papers. If you like your results we are grateful for a citation.

  1. Izsak, R.; Neese, F.
     An overlap fitted chain of spheres exchange method
     J. Chem. Phys. 2011 135 , 144105
     doi.org/10.1063/1.3646921
  2. Izsak, R.; Hansen, A.; Neese, F.
     The resolution of identity and chain of spheres approximations for the LPNO-CCSD singles Fock term
     Molec. Phys. 2012 110 , 2413-2417
     doi.org/10.1080/00268976.2012.687466
  3. Neese, F.
     The ORCA program system
     WIRES Comput. Molec. Sci. 2012 2(1), 73-78
     doi.org/10.1002/wcms.81
  4. Izsak, R.; Neese, F.; Klopper, W.
     Robust fitting techniques in the chain of spheres approximation to the Fock exchange: The role of the complementary space
     J. Chem. Phys. 2013 139 , 
     doi.org/10.1063/1.4819264
  5. Neese, F.
     Software update: the ORCA program system, version 4.0
     WIRES Comput. Molec. Sci. 2018 8(1), 1-6
     doi.org/10.1002/wcms.1327
  6. Neese, F.; Wennmohs, F.; Becker, U.; Riplinger, C.
     The ORCA quantum chemistry program package
     J. Chem. Phys. 2020 152(22), 224108
     doi.org/10.1063/5.0004608
  7. Neese, F.
     Software update: The ORCA program system—Version 5.0
     WIRES Comput. Molec. Sci. 2022 12(1), e1606
     doi.org/10.1002/wcms.1606

List of optional additional citations

  1. Neese, F.
     Approximate second-order SCF convergence for spin unrestricted wavefunctions
     Chem. Phys. Lett. 2000 325(1-3), 93-98
     doi.org/10.1016/s0009-2614(00)00662-x

Timings for individual modules:

Sum of individual times          ...       19.330 sec (=   0.322 min)
Startup calculation              ...        1.385 sec (=   0.023 min)   7.2 %
SCF iterations                   ...       10.361 sec (=   0.173 min)  53.6 %
Property calculations            ...        0.481 sec (=   0.008 min)   2.5 %
SCF Gradient evaluation          ...        7.104 sec (=   0.118 min)  36.8 %
                             ****ORCA TERMINATED NORMALLY****
TOTAL RUN TIME: 0 days 0 hours 0 minutes 19 seconds 900 msec
