
                                 *****************
                                 * O   R   C   A *
                                 *****************

                                            #,                                       
                                            ###                                      
                                            ####                                     
                                            #####                                    
                                            ######                                   
                                           ########,                                 
                                     ,,################,,,,,                         
                               ,,#################################,,                 
                          ,,##########################################,,             
                       ,#########################################, ''#####,          
                    ,#############################################,,   '####,        
                  ,##################################################,,,,####,       
                ,###########''''           ''''###############################       
              ,#####''   ,,,,##########,,,,          '''####'''          '####       
            ,##' ,,,,###########################,,,                        '##       
           ' ,,###''''                  '''############,,,                           
         ,,##''                                '''############,,,,        ,,,,,,###''
      ,#''                                            '''#######################'''  
     '                                                          ''''####''''         
             ,#######,   #######,   ,#######,      ##                                
            ,#'     '#,  ##    ##  ,#'     '#,    #''#        ,####,    ,#,          
            ##       ##  ##   ,#'  ##            #'  '#       #'       ,# #          
            ##       ##  #######   ##           ,######,      #####,      #          
            '#,     ,#'  ##    ##  '#,     ,#' ,#      #,     #,   #      #          
             '#######'   ##     ##  '#######'  #'      '#     '####' #    #          



                #########################################################
                #                        -***-                          #
                #          Department of theory and spectroscopy        #
                #                                                       #
                #                      Frank Neese                      #
                #                                                       #
                #     Directorship, Architecture, Infrastructure        #
                #                    SHARK, DRIVERS                     #
                #        Core code/Algorithms in most modules           #
                #                                                       #
                #        Max Planck Institute fuer Kohlenforschung      #
                #                Kaiser Wilhelm Platz 1                 #
                #                 D-45470 Muelheim/Ruhr                 #
                #                      Germany                          #
                #                                                       #
                #                  All rights reserved                  #
                #                        -***-                          #
                #########################################################


                         Program Version 6.1.0  -  RELEASE   -
                                (GIT: $679e74b$)
                          ($2025-06-10 18:02:51 +0200$)


 With contributions from (in alphabetic order):
[Max-Planck-Institut fuer Kohlenforschung]                               
  Daniel Aravena         : Magnetic Suceptibility                        
  Michael Atanasov       : Ab Initio Ligand Field Theory (pilot matlab implementation)
  Alexander A. Auer      : GIAO ZORA, VPT2 properties, NMR spectrum      
  Ute Becker             : All parallelization in ORCA, NUMFREQ, NUMCALC 
  Giovanni Bistoni       : ED, misc. LED, open-shell LED, HFLD           
  Dmytro Bykov           : pre 5.0 version of the SCF Hessian            
  Marcos Casanova-Páez   : Triplet and SCS-CIS(D). UHF-(DLPNO)-IP/EA/STEOM-CCSD. UHF-CVS-IP/STEOM-CCSD   
  Vijay G. Chilkuri      : MRCI spin determinant printing, contributions to CSF-ICE 
  Pauline Colinet        : FMM embedding                                 
  Dipayan Datta          : RHF DLPNO-CCSD density                        
  Achintya Kumar Dutta   : EOM-CC, STEOM-CC                              
  Nicolas Foglia         : Exact transition moments, OPA infrastructure, MCD improvements    
  Dmitry Ganyushin       : Spin-Orbit,Spin-Spin,Magnetic field MRCI      
  Miquel Garcia-Rates    : C-PCM and meta-GGA Hessian, CCSD/C-PCM, Gaussian charge scheme 
  Tiago L. C. Gouveia    : GS-ROHF, GS-ROCIS                             
  Yang Guo               : DLPNO-NEVPT2, F12-NEVPT2, CIM, IAO-localization        
  Andreas Hansen         : Spin unrestricted coupled pair/coupled cluster methods 
  Ingolf Harden          : AUTO-CI MPn and infrastructure                
  Benjamin Helmich-Paris : MC-RPA, TRAH-(SCF,CASSCF), AVAS, COSX integrals, SCF dyn. polar., MC-PDFT, srDFT 
  Lee Huntington         : MR-EOM, pCC                                   
  Robert Izsak           : Overlap fitted RIJCOSX, COSX-SCS-MP3, EOM     
  Riya Kayal             : Wick's Theorem for AUTO-CI, AUTO-CI UHF-CCSDT 
  Emily Kempfer          : AUTO-CI RHF CISDT and CCSDT, approximate NEVPT4
  Christian Kollmar      : KDIIS, OOCD, Brueckner-CCSD(T), CCSD density, CASPT2, CASPT2-K, improved NEVPT2 
  Axel Koslowski         : Symmetry handling                             
  Simone Kossmann        : meta-GGA functionals, TD-DFT gradient, OOMP2, (MP2 Hessian; deprecated post 5.0) 
  Lucas Lang             : DCDCAS, Hyperfine gauge corrections, ICE-SOC+SSC
  Marvin Lechner         : AUTO-CI (C++ implementation), FIC-MRCC        
  Spencer Leger          : CASSCF response                               
  Dagmar Lenk            : GEPOL surface, SMD, ORCA-2-JSON               
  Dimitrios Liakos       : Extrapolation schemes; Compound Job, Property file
  Dimitrios Manganas     : Further ROCIS development; embedding schemes. LFT, Crystal Embedding 
  Dimitrios Pantazis     : SARC Basis sets                               
  Anastasios Papadopoulos: AUTO-CI, single reference methods and gradients 
  Taras Petrenko         : pre 6.0 DFT Hessian and TD-DFT gradient,  ECA, NRVS 
  Petra Pikulova         : Analytic Raman intensities                    
  Peter Pinski           : DLPNO-MP2, DLPNO-MP2 Gradient                 
  Shashank Vittal Rao    : ES-AILFT, MagRelax                            
  Christoph Reimann      : Effective Core Potentials                     
  Marius Retegan         : Local ZFS, SOC                                
  Christoph Riplinger    : Optimizer, TS searches, QM/MM, DLPNO-CCSD(T), (RO)-DLPNO pert. Triples 
  Michael Roemelt        : Original ROCIS implementation, recursive CI coupling coefficients
  Masaaki Saitow         : Open-shell DLPNO-CCSD energy and density      
  Barbara Sandhoefer     : DKH picture change effects                    
  Yorick L. A. Schmerwitz: GMF and freeze-and-release deltaSCF, NEB S-IDPP initial path                    
  Kantharuban Sivalingam : CASSCF convergence/infrastructure, NEVPT2, NEVPT3, NEVPT4(SD), FIC-MRCI and CEPA variants
  Bernardo de Souza      : ESD, SOC TD-DFT                               
  Georgi L. Stoychev     : AutoAux, RI-MP2 NMR, DLPNO-MP2 response, X2C  
  Van Anh Tran           : RI-MP2 g-tensors                              
  Willem Van den Heuvel  : Paramagnetic NMR                              
  Zikuan Wang            : NOTCH, Electric field optimization            
  Frank Wennmohs         : Technical directorship and infrastructure     
  Hang Xu                : AUTO-CI-Response properties                   
                                                                         
[FACCTs GmbH]                                                            
  Markus Bursch, Nicolas Foglia, Miquel Garcia-Rates, Ingolf Harden, Hagen Neugebauer, Anastasios Papadopoulos, 
  Christoph Riplinger, Bernardo de Souza, Georgi L. Stoychev                                                    
                                                                 
  APM, various basis sets, CI-OPT, improved COSX, DLPNO-Multilevel,           
  DOCKER, DRACO, updates on ESD, Fragmentator, GOAT, IRC, LR-CPCM, L-BFGS, MBIS, meta-GGA TD-DFT gradient, ML-optimized integration grids, 
  MM, NACMEs, nearIR, NEB, NEB-TS, NL-DFT gradient (VV10), 2- and 3-layer-ONIOM, interface openCOSMO-RS, QMMM,   
  Crystal-QMMM, RESP, rigid body optimization, SF, symmetry and pop. for TD-DFT, various functionals, SOLVATOR                                   
                                                                         
[Other institutions]                                                     
  V. Asgeirsson          : NEB                                           
  Christoph Bannwarth    : sTDA-DFT, sTD-DFT, PBEh-3c, B97-3c, D3        
  Giovanni Bistoni       : ETS/NOCV, ADLD/ADEX, COVALED                  
  Martin Brehm           : Molecular dynamics                            
  Ronald Cardenas        : ETS/NOCV                                      
  Martina Colucci        : COVALED                                       
  Sebastian Ehlert       : rSCAN, r2SCAN, r2SCAN-3c, D4, dhf basis sets  
  Marvin Friede          : D4 for Fr, Ra, Ac-Lr                          
  Lars Goerigk           : TD-DFT with DH, B97 family of functionals     
  Stefan Grimme          : VdW corrections, initial TS optimization, DFT functionals, gCP, sTDA/sTD-DF 
  Waldemar Hujo          : DFT-NL                                        
  H. Jonsson             : NEB                                           
  Holger Kruse           : gCP                                           
  Marcel Mueller         : wB97X-3c, vDZP basis set                      
  Hagen Neugebauer       : wr2SCAN, Native XTB                           
  Gianluca Regni         : ADLD/ADEX                                     
  Tobias Risthaus        : pre 6.0 range-separated hybrid DFT and stability analysis
  Lukas Wittmann         : regularized MP2, r2SCAN double-hybrids, wr2SCAN        
                                                                         
We gratefully acknowledge several colleagues who have allowed us to      
interface, adapt or use parts of their codes:                            
  Ed Valeev, F. Pavosevic, A. Kumar             : LibInt (2-el integral package), F12 methods 
  Garnet Chan, S. Sharma, J. Yang, R. Olivares  : DMRG                   
  Ulf Ekstrom                                   : XCFun DFT Library      
  Mihaly Kallay                                 : mrcc  (arbitrary order and MRCC methods)
  Frank Weinhold                                : gennbo (NPA and NBO analysis)           
  Simon Mueller                                 : openCOSMO-RS                            
  Christopher J. Cramer and Donald G. Truhlar   : smd solvation model                     
  S Lehtola, MJT Oliveira, MAL Marques          : LibXC Library                           
  Liviu Ungur et al                             : ANISO software                          


 Your calculation uses the libint2 library for the computation of 2-el integrals
 For citations please refer to: http://libint.valeyev.net

 Your ORCA version has been built with support for libXC version: 7.0.0
 For citations please refer to: https://libxc.gitlab.io

 This ORCA versions uses:
   CBLAS   interface :  Fast vector & matrix operations
   LAPACKE interface :  Fast linear algebra routines
   SCALAPACK package :  Parallel linear algebra routines
   Shared memory     :  Shared parallel matrices
   BLAS/LAPACK       :  OpenBLAS 0.3.29  USE64BITINT DYNAMIC_ARCH NO_AFFINITY Zen SINGLE_THREADED
        Core in use  :  Zen
   Copyright (c) 2011-2014, The OpenBLAS Project


  ***********************************
  * Starting time: Wed Sep 10 13:34:26 2025
  * Host name:     wyk-Server
  * Process ID:    2282915
  * Working dir.:  /home/wyk/Documents/code/openQDC/MGMR/singlepointcalc/38/sp
  ***********************************

Your calculation utilizes the atom-pairwise dispersion correction
with the Becke-Johnson damping scheme (D3BJ)


Warning: RI is on but no J-basis has been assigned. Assigning Def2/J (nothing to worry about!)
================================================================================

----- Orbital basis set information -----
Your calculation utilizes the basis: def2-SVP
   F. Weigend and R. Ahlrichs, Phys. Chem. Chem. Phys. 7, 3297 (2005).

----- AuxJ basis set information -----
Your calculation utilizes the auxiliary basis: def2/J
   H-Rn: F. Weigend, Phys. Chem. Chem. Phys. 8, 1057 (2006).
   Fr-Lr: K. Eichkorn, F. Weigend, O. Treutler, R. Ahlrichs; Theor. Chem. Acc. 97, 119 (1997).

================================================================================
                                        WARNINGS
                       Please study these warnings very carefully!
================================================================================


================================================================================
                                       INPUT FILE
================================================================================
NAME = orca.inp
|  1> ! B3LYP def2-SVP d3 EnGrad 
|  2> %pal nprocs 6 end 
|  3> *xyz 0 1 
|  4> C   1.66251480373681 0.24466047093697 0.06571642503465
|  5> C   0.28328629268714 0.72552023974784 0.39514319306005
|  6> H   1.8677133964303 0.27184017174253 -1.02388561193513
|  7> H   1.84527570970887 -0.80282885798328 0.38086226959786
|  8> H   2.42034250332228 0.86270698324802 0.56850821105497
|  9> C   -0.88440009656644 0.08552691888337 -0.12284199704855
| 10> O   -2.09401466731556 0.68180064657455 0.03767777740479
| 11> C   -0.91497170754158 -1.22514175981702 -0.67191287864554
| 12> H   0.00951014002687 -1.73707847772949 -0.92699881356247
| 13> H   -1.88180431384418 -1.67143047117049 -0.896973406084
| 14> H   -0.49146331170846 -0.64427877211516 0.81538591279338
| 15> H   -1.95531994477396 1.55933855179398 0.41963882565955
| 16> H   0.1333311958379 1.64936435588817 0.95968009267045
| 17> *
| 18> 
| 19>                          ****END OF INPUT****
================================================================================

                     *******************************
                     * Energy+Gradient Calculation *
                     *******************************

---------------------------------
CARTESIAN COORDINATES (ANGSTROEM)
---------------------------------
  C      1.662515    0.244660    0.065716
  C      0.283286    0.725520    0.395143
  H      1.867713    0.271840   -1.023886
  H      1.845276   -0.802829    0.380862
  H      2.420343    0.862707    0.568508
  C     -0.884400    0.085527   -0.122842
  O     -2.094015    0.681801    0.037678
  C     -0.914972   -1.225142   -0.671913
  H      0.009510   -1.737078   -0.926999
  H     -1.881804   -1.671430   -0.896973
  H     -0.491463   -0.644279    0.815386
  H     -1.955320    1.559339    0.419639
  H      0.133331    1.649364    0.959680

----------------------------
CARTESIAN COORDINATES (A.U.)
----------------------------
  NO LB      ZA    FRAG     MASS         X           Y           Z
   0 C     6.0000    0    12.011    3.141698    0.462341    0.124186
   1 C     6.0000    0    12.011    0.535334    1.371035    0.746712
   2 H     1.0000    0     1.008    3.529467    0.513703   -1.934863
   3 H     1.0000    0     1.008    3.487066   -1.517127    0.719725
   4 H     1.0000    0     1.008    4.573784    1.630280    1.074325
   5 C     6.0000    0    12.011   -1.671274    0.161622   -0.232138
   6 O     8.0000    0    15.999   -3.957114    1.288416    0.071201
   7 C     6.0000    0    12.011   -1.729046   -2.315182   -1.269731
   8 H     1.0000    0     1.008    0.017972   -3.282603   -1.751774
   9 H     1.0000    0     1.008   -3.556095   -3.158546   -1.695034
  10 H     1.0000    0     1.008   -0.928731   -1.217510    1.540856
  11 H     1.0000    0     1.008   -3.695019    2.946723    0.793002
  12 H     1.0000    0     1.008    0.251959    3.116847    1.813533

--------------------------------
INTERNAL COORDINATES (ANGSTROEM)
--------------------------------
 C      0   0   0     0.000000000000     0.00000000     0.00000000
 C      1   0   0     1.497337436400     0.00000000     0.00000000
 H      1   2   0     1.109088723930   112.25283275     0.00000000
 H      1   2   3     1.109032166485   113.11627493   240.39589228
 H      1   2   3     1.099583509211   110.71536495   120.69387830
 C      2   1   3     1.428772764148   121.95061292    59.85409174
 O      6   2   1     1.358115004738   119.23488408   190.10012266
 C      6   2   1     1.421360560077   124.79732040    17.83001785
 H      8   6   2     1.087113022562   120.43714034   346.38052579
 H      8   6   2     1.088389242644   118.49607760   170.77690361
 H      6   2   1     1.251913445217    74.50880566    77.99325161
 H      7   6   2     0.967059069314   108.50262982     6.70349016
 H      2   1   3     1.093012531044   120.76013270   246.39953937

---------------------------
INTERNAL COORDINATES (A.U.)
---------------------------
 C      0   0   0     0.000000000000     0.00000000     0.00000000
 C      1   0   0     2.829557684864     0.00000000     0.00000000
 H      1   2   0     2.095873946447   112.25283275     0.00000000
 H      1   2   3     2.095767068366   113.11627493   240.39589228
 H      1   2   3     2.077911693785   110.71536495   120.69387830
 C      2   1   3     2.699989231845   121.95061292    59.85409174
 O      6   2   1     2.566465417324   119.23488408   190.10012266
 C      6   2   1     2.685982196102   124.79732040    17.83001785
 H      8   6   2     2.054345889261   120.43714034   346.38052579
 H      8   6   2     2.056757595702   118.49607760   170.77690361
 H      6   2   1     2.365773554834    74.50880566    77.99325161
 H      7   6   2     1.827476796327   108.50262982     6.70349016
 H      2   1   3     2.065494344618   120.76013270   246.39953937

---------------------
BASIS SET INFORMATION
---------------------
There are 3 groups of distinct atoms

 Group   1 Type C   : 7s4p1d contracted to 3s2p1d pattern {511/31/1}
 Group   2 Type H   : 4s1p contracted to 2s1p pattern {31/1}
 Group   3 Type O   : 7s4p1d contracted to 3s2p1d pattern {511/31/1}

Atom   0C    basis set group =>   1
Atom   1C    basis set group =>   1
Atom   2H    basis set group =>   2
Atom   3H    basis set group =>   2
Atom   4H    basis set group =>   2
Atom   5C    basis set group =>   1
Atom   6O    basis set group =>   3
Atom   7C    basis set group =>   1
Atom   8H    basis set group =>   2
Atom   9H    basis set group =>   2
Atom  10H    basis set group =>   2
Atom  11H    basis set group =>   2
Atom  12H    basis set group =>   2
---------------------------------
AUXILIARY/J BASIS SET INFORMATION
---------------------------------
There are 3 groups of distinct atoms

 Group   1 Type C   : 12s5p4d2f1g contracted to 6s4p3d1f1g pattern {711111/2111/211/2/1}
 Group   2 Type H   : 5s2p1d contracted to 3s1p1d pattern {311/2/1}
 Group   3 Type O   : 12s5p4d2f1g contracted to 6s4p3d1f1g pattern {711111/2111/211/2/1}

Atom   0C    basis set group =>   1
Atom   1C    basis set group =>   1
Atom   2H    basis set group =>   2
Atom   3H    basis set group =>   2
Atom   4H    basis set group =>   2
Atom   5C    basis set group =>   1
Atom   6O    basis set group =>   3
Atom   7C    basis set group =>   1
Atom   8H    basis set group =>   2
Atom   9H    basis set group =>   2
Atom  10H    basis set group =>   2
Atom  11H    basis set group =>   2
Atom  12H    basis set group =>   2


           ************************************************************
           *        Program running with 6 parallel MPI-processes     *
           *              working on a common directory               *
           ************************************************************
------------------------------------------------------------------------------
                             ORCA STARTUP CALCULATIONS
                           -- RI-GTO INTEGRALS CHOSEN --
------------------------------------------------------------------------------
------------------------------------------------------------------------------
                   ___                                                        
                  /   \      - P O W E R E D   B Y -                         
                 /     \                                                     
                 |  |  |   _    _      __       _____    __    __             
                 |  |  |  | |  | |    /  \     |  _  \  |  |  /  |          
                  \  \/   | |  | |   /    \    | | | |  |  | /  /          
                 / \  \   | |__| |  /  /\  \   | |_| |  |  |/  /          
                |  |  |   |  __  | /  /__\  \  |    /   |      \           
                |  |  |   | |  | | |   __   |  |    \   |  |\   \          
                \     /   | |  | | |  |  |  |  | |\  \  |  | \   \       
                 \___/    |_|  |_| |__|  |__|  |_| \__\ |__|  \__/        
                                                                              
                      - O R C A' S   B I G   F R I E N D -                    
                                      &                                       
                       - I N T E G R A L  F E E D E R -                       
                                                                              
 v1 FN, 2020, v2 2021, v3 2022-2024                                           
------------------------------------------------------------------------------


----------------------
SHARK INTEGRAL PACKAGE
----------------------

Number of atoms                             ...     13
Number of basis functions                   ...    110
Number of shells                            ...     54
Maximum angular momentum                    ...      2
Integral batch strategy                     ... SHARK/LIBINT Hybrid
RI-J (if used) integral strategy            ... SPLIT-RIJ (Revised 2003 algorithm where possible)
Printlevel                                  ...      1
Contraction scheme used                     ... SEGMENTED contraction
Prescreening option                         ... SCHWARTZ
   Thresh                                   ... 2.500e-11
   Tcut                                     ... 2.500e-12
   Tpresel                                  ... 2.500e-12 
Coulomb Range Separation                    ... NOT USED
Exchange Range Separation                   ... NOT USED
Multipole approximations                    ... NOT USED
Finite Nucleus Model                        ... NOT USED
CABS basis                                  ... NOT available
Auxiliary Coulomb fitting basis             ... AVAILABLE
   # of basis functions in Aux-J            ...    333
   # of shells in Aux-J                     ...    115
   Maximum angular momentum in Aux-J        ...      4
Auxiliary J/K fitting basis                 ... NOT available
Auxiliary Correlation fitting basis         ... NOT available
Auxiliary 'external' fitting basis          ... NOT available

Checking pre-screening integrals            ... done (  0.0 sec) Dimension = 54
   => SHARK Basis and OBASIS are compatible. Storing Pre-screening
Shell pair information
Shell pair cut-off parameter TPreSel        ...   2.5e-12
Total number of shell pairs                 ...      1485
Shell pairs after pre-screening             ...      1458
Total number of primitive shell pairs       ...      5139
Primitive shell pairs kept                  ...      4031
          la=0 lb=0:    486 shell pairs
          la=1 lb=0:    546 shell pairs
          la=1 lb=1:    169 shell pairs
          la=2 lb=0:    153 shell pairs
          la=2 lb=1:     89 shell pairs
          la=2 lb=2:     15 shell pairs

Checking whether 4 symmetric matrices of dimension 110 fit in memory
:Max Core in MB      =   4096.00
 MB in use           =      5.16
 MB left             =   4090.84
 MB needed           =      0.19
 Data fit in memory  = YES
Calculating RI/J V-Matrix + Cholesky decomp.... done (  0.0 sec)
Calculating Nuclear repulsion               ... done (  0.0 sec) ENN=    177.378554712066 Eh

Diagonalization of the overlap matrix:
Smallest eigenvalue                        ... 1.704e-03
Time for diagonalization                   ...    0.002 sec
Threshold for overlap eigenvalues          ... 1.000e-07
Number of eigenvalues below threshold      ... 0
Time for construction of square roots      ...    0.001 sec
Total time needed                          ...    0.004 sec

-------------------
DFT GRID GENERATION
-------------------

General Integration Accuracy     IntAcc      ... 4.388
Radial Grid Type                 RadialGrid  ... OptM3 with GC (2021)
Angular Grid (max. ang.)         AngularGrid ... 4 (Lebedev-302)
Angular grid pruning method      GridPruning ... 4 (adaptive)
Weight generation scheme         WeightScheme... mBecke (2022)
Basis function cutoff            BFCut       ... 1.0000e-11
Integration weight cutoff        WCut        ... 1.0000e-14
Partially contracted basis set               ... off
Rotationally invariant grid construction     ... off
Angular grids for H and He will be reduced by one unit

Total number of grid points                  ...    56078
Total number of batches                      ...      882
Average number of points per batch           ...       63
Average number of grid points per atom       ...     4314

--------------------
COSX GRID GENERATION
--------------------

GRIDX 1
-------
General Integration Accuracy     IntAcc      ... 3.816
Radial Grid Type                 RadialGrid  ... OptM3 with GC (2021)
Angular Grid (max. ang.)         AngularGrid ... 1 (Lebedev-50)
Angular grid pruning method      GridPruning ... 4 (adaptive)
Weight generation scheme         WeightScheme... mBecke (2022)
Basis function cutoff            BFCut       ... 1.0000e-11
Integration weight cutoff        WCut        ... 1.0000e-14
Partially contracted basis set               ... on
Rotationally invariant grid construction     ... off
Angular grids for H and He will be reduced by one unit

Total number of grid points                  ...     7217
Total number of batches                      ...       65
Average number of points per batch           ...      111
Average number of grid points per atom       ...      555
UseSFitting                                  ... on

GRIDX 2
-------
General Integration Accuracy     IntAcc      ... 4.020
Radial Grid Type                 RadialGrid  ... OptM3 with GC (2021)
Angular Grid (max. ang.)         AngularGrid ... 2 (Lebedev-110)
Angular grid pruning method      GridPruning ... 4 (adaptive)
Weight generation scheme         WeightScheme... mBecke (2022)
Basis function cutoff            BFCut       ... 1.0000e-11
Integration weight cutoff        WCut        ... 1.0000e-14
Partially contracted basis set               ... on
Rotationally invariant grid construction     ... off
Angular grids for H and He will be reduced by one unit

Total number of grid points                  ...    15263
Total number of batches                      ...      127
Average number of points per batch           ...      120
Average number of grid points per atom       ...     1174
UseSFitting                                  ... on

GRIDX 3
-------
General Integration Accuracy     IntAcc      ... 4.338
Radial Grid Type                 RadialGrid  ... OptM3 with GC (2021)
Angular Grid (max. ang.)         AngularGrid ... 3 (Lebedev-194)
Angular grid pruning method      GridPruning ... 4 (adaptive)
Weight generation scheme         WeightScheme... mBecke (2022)
Basis function cutoff            BFCut       ... 1.0000e-11
Integration weight cutoff        WCut        ... 1.0000e-14
Partially contracted basis set               ... on
Rotationally invariant grid construction     ... off
Angular grids for H and He will be reduced by one unit

Total number of grid points                  ...    33437
Total number of batches                      ...      266
Average number of points per batch           ...      125
Average number of grid points per atom       ...     2572
UseSFitting                                  ... on
Grids setup in   0.7 sec
Initializing property integral containers    ... done (  0.0 sec)

SHARK setup successfully completed in   0.8 seconds

Maximum memory used throughout the entire STARTUP-calculation: 15.8 MB


           ************************************************************
           *        Program running with 6 parallel MPI-processes     *
           *              working on a common directory               *
           ************************************************************
-------------------------------------------------------------------------------
                                 ORCA GUESS
                   Start orbitals & Density for SCF / CASSCF
-------------------------------------------------------------------------------

------------
SCF SETTINGS
------------
Hamiltonian:
 Density Functional     Method          .... DFT(GTOs)
 Exchange Functional    Exchange        .... B88
   X-Alpha parameter    XAlpha          ....  0.666667
   Becke's b parameter  XBeta           ....  0.004200
 Correlation Functional Correlation     .... LYP
 LDA part of GGA corr.  LDAOpt          .... VWN-5
 Gradients option       PostSCFGGA      .... off
 Hybrid DFT is turned on
   Fraction HF Exchange ScalHFX         ....  0.200000
   Scaling of DF-GGA-X  ScalDFX         ....  0.720000
   Scaling of DF-GGA-C  ScalDFC         ....  0.810000
   Scaling of DF-LDA-C  ScalLDAC        ....  1.000000
   Perturbative correction              ....  0.000000
   NL short-range parameter             ....  4.800000
 RI-approximation to the Coulomb term is turned on
   Number of AuxJ basis functions       .... 333
   RIJ-COSX (HFX calculated with COS-X)).... on


General Settings:
 Integral files         IntName         .... orca
 Hartree-Fock type      HFTyp           .... RHF
 Total Charge           Charge          ....    0
 Multiplicity           Mult            ....    1
 Number of Electrons    NEL             ....   40
 Basis Dimension        Dim             ....  110
 Nuclear Repulsion      ENuc            ....    177.3785547121 Eh

Convergence Acceleration:
 AO-DIIS                CNVDIIS         .... on
   Start iteration      DIISMaxIt       ....    12
   Startup error        DIISStart       ....  0.200000
   # of expansion vecs  DIISMaxEq       ....     5
   Bias factor          DIISBfac        ....   1.050
   Max. coefficient     DIISMaxC        ....  10.000
 MO-DIIS                CNVKDIIS        .... off
 Trust-Rad. Augm. Hess. CNVTRAH         .... auto
   Auto Start mean grad. ratio tolernc. ....  1.125000
   Auto Start start iteration           ....    50
   Auto Start num. interpolation iter.  ....    10
   Max. Number of Micro iterations      ....    24
   Max. Number of Macro iterations      .... Maxiter - #DIIS iter
   Number of Davidson start vectors     ....     2
   Converg. threshold    (grad. norm)   ....   1.000e-05
   Grad. Scal. Fac. for Micro threshold ....   0.100
   Minimum threshold for Micro iter.    ....   1.000e-02
   NR start threshold (gradient norm)   ....   1.000e-04
   Initial trust radius                 ....   0.400
   Minimum AH scaling param. (alpha)    ....   1.000
   Maximum AH scaling param. (alpha)    .... 1000.000
   Quad. conv. algorithm                .... NR
   White noise on init. David. guess    .... on
   Maximum white noise                  ....   0.010
   Pseudo random numbers                .... off
   Inactive MOs                         .... canonical
   Orbital update algorithm             .... Taylor
   Preconditioner                       .... Diag
   Full preconditioner red. dimension   ....   250
 SOSCF                 CNVSOSCF           .... on
   Start iteration     SOSCFMaxIt         ....   150
   Startup grad/error  SOSCFStart         ....  0.003300
   Hessian update      SOSCFHessUp        .... L-BFGS
   Autom. constraints  SOSCFAutoConstrain .... off
 Level Shifting         CNVShift        .... on
   Level shift para.    LevelShift      ....    0.2500
   Turn off err/grad.   ShiftErr        ....    0.0010
 Zerner damping         CNVZerner       .... off
 Static damping         CNVDamp         .... on
   Fraction old density DampFac         ....    0.7000
   Max. Damping (<1)    DampMax         ....    0.9800
   Min. Damping (>=0)   DampMin         ....    0.0000
   Turn off err/grad.   DampErr         ....    0.1000

SCF Procedure:
 Maximum # iterations   MaxIter         ....   125
 SCF integral mode      SCFMode         .... Direct
   Integral package                     .... SHARK and LIBINT hybrid scheme
 Reset frequency        DirectResetFreq ....    20
 Integral Threshold     Thresh          ....  2.500e-11 Eh
 Primitive CutOff       TCut            ....  2.500e-12 Eh

Convergence Tolerance:
 Convergence Check Mode ConvCheckMode   .... Total+1el-Energy
 Convergence forced     ConvForced      .... 0
 Energy Change          TolE            ....  1.000e-08 Eh
 1-El. energy change                    ....  1.000e-05 Eh
 Orbital Gradient       TolG            ....  1.000e-05
 Orbital Rotation angle TolX            ....  1.000e-05
 DIIS Error             TolErr          ....  5.000e-07

------------------------------
INITIAL GUESS: MODEL POTENTIAL
------------------------------
Loading Hartree-Fock densities                     ... done
Calculating cut-offs                               ... done
Initializing the effective Hamiltonian             ... done
Setting up the integral package (SHARK)            ... done
Starting the Coulomb interaction                   ... done (   0.0 sec)
Making the grid                                    ... done (   0.1 sec)
Mapping shells                                     ... done
Starting the XC term evaluation                    ... done (   0.0 sec)
  promolecular density results
     # of electrons  =     39.997281590
     EX              =    -31.129486423
     EC              =     -1.311749011
     EX+EC           =    -32.441235434
Transforming the Hamiltonian                       ... done (   0.0 sec)
Diagonalizing the Hamiltonian                      ... done (   0.0 sec)
Back transforming the eigenvectors                 ... done (   0.0 sec)
Now organizing SCF variables                       ... done
                      ------------------
                      INITIAL GUESS DONE (   0.1 sec)
                      ------------------
             **** ENERGY FILE WAS UPDATED (orca.en.tmp) ****
Finished Guess after   0.3 sec
Maximum memory used throughout the entire GUESS-calculation: 7.6 MB


           ************************************************************
           *        Program running with 6 parallel MPI-processes     *
           *              working on a common directory               *
           ************************************************************

-------------------------------------------------------------------------------------------
                                      ORCA LEAN-SCF
                              memory conserving SCF solver
-------------------------------------------------------------------------------------------

----------------------------------------D-I-I-S--------------------------------------------
Iteration    Energy (Eh)           Delta-E    RMSDP     MaxDP     DIISErr   Damp  Time(sec)
-------------------------------------------------------------------------------------------
               ***  Starting incremental Fock matrix formation  ***
    1    -231.8126316199690393     0.00e+00  1.09e-02  7.80e-02  2.09e-01  0.700   0.6
    2    -231.8994210450894400    -8.68e-02  7.72e-03  5.14e-02  9.49e-02  0.700   0.4
                               ***Turning on AO-DIIS***
    3    -231.9345280972289913    -3.51e-02  3.02e-03  1.95e-02  3.37e-02  0.700   0.4
    4    -231.9546709648224407    -2.01e-02  4.79e-03  2.83e-02  1.77e-02  0.000   0.3
    5    -231.9982884657747206    -4.36e-02  1.02e-03  5.46e-03  6.67e-03  0.000   0.3
                              *** Initializing SOSCF ***
---------------------------------------S-O-S-C-F--------------------------------------
Iteration    Energy (Eh)           Delta-E    RMSDP     MaxDP     MaxGrad    Time(sec)
--------------------------------------------------------------------------------------
    6    -231.9985690163003653    -2.81e-04  3.80e-04  2.34e-03  2.17e-03     0.3
               *** Restarting incremental Fock matrix formation ***
    7    -231.9986022043899254    -3.32e-05  3.17e-04  2.71e-03  3.86e-04     0.5
    8    -231.9985932330563685     8.97e-06  2.09e-04  1.83e-03  1.37e-03     0.5
    9    -231.9986059905477589    -1.28e-05  1.02e-04  7.45e-04  1.76e-04     0.5
   10    -231.9986057182690899     2.72e-07  5.33e-05  3.86e-04  2.40e-04     0.4
   11    -231.9986065251934235    -8.07e-07  7.47e-06  5.80e-05  9.30e-06     0.4
   12    -231.9986065245535940     6.40e-10  4.00e-06  3.65e-05  1.38e-05     0.4
                 **** Energy Check signals convergence ****

               *****************************************************
               *                     SUCCESS                       *
               *           SCF CONVERGED AFTER  12 CYCLES          *
               *****************************************************

Recomputing exchange energy using gridx3       ... done (    0.743 sec)
Old exchange energy                            :     -6.329051518 Eh
New exchange energy                            :     -6.329040952 Eh
Exchange energy change after final integration :      0.000010566 Eh
Total energy after final integration           :   -231.998595962 Eh
             **** ENERGY FILE WAS UPDATED (orca.en.tmp) ****

----------------
TOTAL SCF ENERGY
----------------

Total Energy       :       -231.99859596213409 Eh           -6313.00274 eV

Components:
Nuclear Repulsion  :        177.37855471206595 Eh            4826.71586 eV
Electronic Energy  :       -409.37716124058778 Eh          -11139.71889 eV
One Electron Energy:       -664.41547247293261 Eh          -18079.66416 eV
Two Electron Energy:        255.03831123234482 Eh            6939.94527 eV

Virial components:
Potential Energy   :       -461.67388460421387 Eh          -12562.78508 eV
Kinetic Energy     :        229.67528864207975 Eh            6249.78234 eV
Virial Ratio       :          2.01011561728643

DFT components:
N(Alpha)           :       19.999985946169 electrons
N(Beta)            :       19.999985946169 electrons
N(Total)           :       39.999971892339 electrons
E(X)               :      -25.151983261404 Eh       
E(C)               :       -1.554847538243 Eh       
E(XC)              :      -26.706830799647 Eh       

---------------
SCF CONVERGENCE
---------------

  Last Energy change         ...   -6.3983e-10  Tolerance :   1.0000e-08
  Last MAX-Density change    ...    3.6525e-05  Tolerance :   1.0000e-07
  Last RMS-Density change    ...    4.0034e-06  Tolerance :   5.0000e-09
  Last DIIS Error            ...    2.1656e-03  Tolerance :   5.0000e-07
  Last Orbital Gradient      ...    1.3801e-05  Tolerance :   1.0000e-05
  Last Orbital Rotation      ...    1.5902e-05  Tolerance :   1.0000e-05


----------------
ORBITAL ENERGIES
----------------

  NO   OCC          E(Eh)            E(eV) 
   0   2.0000     -19.166681      -521.5519 
   1   2.0000     -10.277715      -279.6708 
   2   2.0000     -10.184551      -277.1357 
   3   2.0000     -10.177658      -276.9482 
   4   2.0000     -10.167063      -276.6598 
   5   2.0000      -1.059542       -28.8316 
   6   2.0000      -0.814210       -22.1558 
   7   2.0000      -0.717960       -19.5367 
   8   2.0000      -0.639005       -17.3882 
   9   2.0000      -0.582191       -15.8422 
  10   2.0000      -0.511684       -13.9236 
  11   2.0000      -0.462011       -12.5720 
  12   2.0000      -0.445653       -12.1268 
  13   2.0000      -0.413630       -11.2554 
  14   2.0000      -0.395176       -10.7533 
  15   2.0000      -0.389170       -10.5898 
  16   2.0000      -0.367802       -10.0084 
  17   2.0000      -0.354163        -9.6373 
  18   2.0000      -0.301494        -8.2041 
  19   2.0000      -0.164982        -4.4894 
  20   0.0000       0.009162         0.2493 
  21   0.0000       0.037821         1.0292 
  22   0.0000       0.051670         1.4060 
  23   0.0000       0.084304         2.2940 
  24   0.0000       0.097318         2.6482 
  25   0.0000       0.128184         3.4881 
  26   0.0000       0.145336         3.9548 
  27   0.0000       0.164469         4.4754 
  28   0.0000       0.169436         4.6106 
  29   0.0000       0.224689         6.1141 
  30   0.0000       0.242155         6.5894 
*Only the first 10 virtual orbitals were printed.

                    ********************************
                    * MULLIKEN POPULATION ANALYSIS *
                    ********************************

-----------------------
MULLIKEN ATOMIC CHARGES
-----------------------
   0 C :    0.075119
   1 C :   -0.292474
   2 H :    0.019800
   3 H :    0.007034
   4 H :    0.011124
   5 C :    0.189068
   6 O :   -0.191629
   7 C :   -0.202764
   8 H :    0.025949
   9 H :    0.029597
  10 H :    0.169442
  11 H :    0.175769
  12 H :   -0.016035
Sum of atomic charges:   -0.0000000

--------------------------------
MULLIKEN REDUCED ORBITAL CHARGES
--------------------------------
  0 C s       :     2.942064  s :     2.942064
      pz      :     0.996610  p :     2.952124
      px      :     0.965728
      py      :     0.989787
      dz2     :     0.008253  d :     0.030693
      dxz     :     0.006649
      dyz     :     0.002768
      dx2y2   :     0.006929
      dxy     :     0.006094

  1 C s       :     3.199052  s :     3.199052
      pz      :     1.165909  p :     3.061759
      px      :     0.918084
      py      :     0.977767
      dz2     :     0.003016  d :     0.031663
      dxz     :     0.007743
      dyz     :     0.003681
      dx2y2   :     0.007678
      dxy     :     0.009543

  2 H s       :     0.957327  s :     0.957327
      pz      :     0.013559  p :     0.022873
      px      :     0.004300
      py      :     0.005014

  3 H s       :     0.969731  s :     0.969731
      pz      :     0.005920  p :     0.023235
      px      :     0.004580
      py      :     0.012735

  4 H s       :     0.965765  s :     0.965765
      pz      :     0.006771  p :     0.023111
      px      :     0.008566
      py      :     0.007774

  5 C s       :     3.016509  s :     3.016509
      pz      :     0.894307  p :     2.698276
      px      :     0.847201
      py      :     0.956767
      dz2     :     0.013556  d :     0.096148
      dxz     :     0.018977
      dyz     :     0.015909
      dx2y2   :     0.024022
      dxy     :     0.023683

  6 O s       :     3.671974  s :     3.671974
      pz      :     1.740952  p :     4.505448
      px      :     1.472310
      py      :     1.292186
      dz2     :     0.001632  d :     0.014206
      dxz     :     0.002465
      dyz     :     0.001717
      dx2y2   :     0.005071
      dxy     :     0.003321

  7 C s       :     3.144915  s :     3.144915
      pz      :     1.175527  p :     3.035396
      px      :     0.892873
      py      :     0.966995
      dz2     :     0.004416  d :     0.022454
      dxz     :     0.001187
      dyz     :     0.003979
      dx2y2   :     0.007658
      dxy     :     0.005213

  8 H s       :     0.948765  s :     0.948765
      pz      :     0.007144  p :     0.025286
      px      :     0.011119
      py      :     0.007023

  9 H s       :     0.946239  s :     0.946239
      pz      :     0.006015  p :     0.024164
      px      :     0.012232
      py      :     0.005917

 10 H s       :     0.786237  s :     0.786237
      pz      :     0.014683  p :     0.044321
      px      :     0.008775
      py      :     0.020863

 11 H s       :     0.755239  s :     0.755239
      pz      :     0.021213  p :     0.068992
      px      :     0.014206
      py      :     0.033573

 12 H s       :     0.992158  s :     0.992158
      pz      :     0.009196  p :     0.023877
      px      :     0.002913
      py      :     0.011769



                     *******************************
                     * LOEWDIN POPULATION ANALYSIS *
                     *******************************

----------------------
LOEWDIN ATOMIC CHARGES
----------------------
   0 C :   -0.055010
   1 C :   -0.197668
   2 H :    0.022677
   3 H :    0.019565
   4 H :    0.031471
   5 C :    0.079041
   6 O :   -0.053741
   7 C :   -0.199767
   8 H :    0.024622
   9 H :    0.026463
  10 H :    0.197501
  11 H :    0.091700
  12 H :    0.013145

-------------------------------
LOEWDIN REDUCED ORBITAL CHARGES
-------------------------------
  0 C s       :     2.832445  s :     2.832445
      pz      :     1.062205  p :     3.143335
      px      :     1.022080
      py      :     1.059050
      dz2     :     0.021969  d :     0.079230
      dxz     :     0.016109
      dyz     :     0.006932
      dx2y2   :     0.018370
      dxy     :     0.015851

  1 C s       :     2.874869  s :     2.874869
      pz      :     1.200439  p :     3.242909
      px      :     0.999761
      py      :     1.042709
      dz2     :     0.006547  d :     0.079890
      dxz     :     0.018082
      dyz     :     0.009019
      dx2y2   :     0.023042
      dxy     :     0.023200

  2 H s       :     0.913948  s :     0.913948
      pz      :     0.039145  p :     0.063375
      px      :     0.012475
      py      :     0.011754

  3 H s       :     0.916704  s :     0.916704
      pz      :     0.014360  p :     0.063731
      px      :     0.012740
      py      :     0.036631

  4 H s       :     0.904947  s :     0.904947
      pz      :     0.018004  p :     0.063582
      px      :     0.024709
      py      :     0.020869

  5 C s       :     2.834132  s :     2.834132
      pz      :     0.923547  p :     2.876758
      px      :     0.943729
      py      :     1.009481
      dz2     :     0.026419  d :     0.210069
      dxz     :     0.040143
      dyz     :     0.035146
      dx2y2   :     0.054323
      dxy     :     0.054038

  6 O s       :     3.416566  s :     3.416566
      pz      :     1.726092  p :     4.610120
      px      :     1.517583
      py      :     1.366445
      dz2     :     0.002820  d :     0.027055
      dxz     :     0.003114
      dyz     :     0.004065
      dx2y2   :     0.010618
      dxy     :     0.006439

  7 C s       :     2.883581  s :     2.883581
      pz      :     1.142399  p :     3.256862
      px      :     1.051313
      py      :     1.063150
      dz2     :     0.008410  d :     0.059323
      dxz     :     0.003913
      dyz     :     0.009407
      dx2y2   :     0.021612
      dxy     :     0.015980

  8 H s       :     0.898000  s :     0.898000
      pz      :     0.024207  p :     0.077378
      px      :     0.033286
      py      :     0.019885

  9 H s       :     0.897773  s :     0.897773
      pz      :     0.022305  p :     0.075765
      px      :     0.035945
      py      :     0.017514

 10 H s       :     0.688573  s :     0.688573
      pz      :     0.038657  p :     0.113926
      px      :     0.020983
      py      :     0.054287

 11 H s       :     0.732388  s :     0.732388
      pz      :     0.056147  p :     0.175912
      px      :     0.036301
      py      :     0.083465

 12 H s       :     0.910846  s :     0.910846
      pz      :     0.029099  p :     0.076009
      px      :     0.010469
      py      :     0.036441



                      *****************************
                      * MAYER POPULATION ANALYSIS *
                      *****************************

  NA   - Mulliken gross atomic population
  ZA   - Total nuclear charge
  QA   - Mulliken gross atomic charge
  VA   - Mayer's total valence
  BVA  - Mayer's bonded valence
  FA   - Mayer's free valence

  ATOM       NA         ZA         QA         VA         BVA        FA
  0 C      5.9249     6.0000     0.0751     3.9780     3.9780    -0.0000
  1 C      6.2925     6.0000    -0.2925     3.8204     3.8204    -0.0000
  2 H      0.9802     1.0000     0.0198     0.9782     0.9782    -0.0000
  3 H      0.9930     1.0000     0.0070     0.9851     0.9851    -0.0000
  4 H      0.9889     1.0000     0.0111     0.9851     0.9851    -0.0000
  5 C      5.8109     6.0000     0.1891     4.1545     4.1545     0.0000
  6 O      8.1916     8.0000    -0.1916     2.2365     2.2365    -0.0000
  7 C      6.2028     6.0000    -0.2028     3.8103     3.8103    -0.0000
  8 H      0.9741     1.0000     0.0259     0.9936     0.9936     0.0000
  9 H      0.9704     1.0000     0.0296     0.9980     0.9980     0.0000
 10 H      0.8306     1.0000     0.1694     0.9970     0.9970    -0.0000
 11 H      0.8242     1.0000     0.1758     1.0170     1.0170    -0.0000
 12 H      1.0160     1.0000    -0.0160     0.9983     0.9983    -0.0000

  Mayer bond orders larger than 0.100000
B(  0-C ,  1-C ) :   1.0974 B(  0-C ,  2-H ) :   0.9567 B(  0-C ,  3-H ) :   0.9464 
B(  0-C ,  4-H ) :   0.9541 B(  1-C ,  5-C ) :   1.1214 B(  1-C ,  7-C ) :   0.3540 
B(  1-C , 10-H ) :   0.2357 B(  1-C , 12-H ) :   0.9494 B(  5-C ,  6-O ) :   1.1973 
B(  5-C ,  7-C ) :   1.2291 B(  5-C , 10-H ) :   0.4784 B(  6-O , 11-H ) :   0.9633 
B(  7-C ,  8-H ) :   0.9433 B(  7-C ,  9-H ) :   0.9408 B(  7-C , 10-H ) :   0.2493 


-------
TIMINGS
-------

Total SCF time: 0 days 0 hours 0 min 6 sec 

Total time                  ....       6.270 sec
Sum of individual times     ....       5.875 sec  ( 93.7%)

SCF preparation             ....       0.179 sec  (  2.9%)
Fock matrix formation       ....       5.495 sec  ( 87.6%)
  Startup                   ....       0.004 sec  (  0.1% of F)
  Split-RI-J                ....       0.435 sec  (  7.9% of F)
  Chain of spheres X        ....       4.108 sec  ( 74.8% of F)
  XC integration            ....       1.190 sec  ( 21.6% of F)
    XC Preparation          ....       0.000 sec  (  0.0% of XC)
    Basis function eval.    ....       0.336 sec  ( 28.3% of XC)
    Density eval.           ....       0.177 sec  ( 14.9% of XC)
    XC-Functional eval.     ....       0.070 sec  (  5.9% of XC)
    XC-Potential eval.      ....       0.201 sec  ( 16.9% of XC)
Diagonalization             ....       0.000 sec  (  0.0%)
Density matrix formation    ....       0.026 sec  (  0.4%)
Total Energy calculation    ....       0.014 sec  (  0.2%)
Population analysis         ....       0.010 sec  (  0.2%)
Orbital Transformation      ....       0.014 sec  (  0.2%)
Orbital Orthonormalization  ....       0.000 sec  (  0.0%)
DIIS solution               ....       0.069 sec  (  1.1%)
SOSCF solution              ....       0.067 sec  (  1.1%)
Finished LeanSCF after   6.3 sec

Maximum memory used throughout the entire LEANSCF-calculation: 9.8 MB


-------------------------------------------------------------------------------
                          DFT DISPERSION CORRECTION                            
                                                                               
                              DFTD3 V3.1  Rev 1                                
                          USING Becke-Johnson damping                          
-------------------------------------------------------------------------------
The B3LYP functional is recognized
Active option DFTDOPT                   ...         4   

molecular C6(AA) [au] = 1277.779706 


            DFT-D V3
 parameters
 s6 scaling factor         :     1.0000 
 a1 scaling factor         :     0.3981 
 s8 scaling factor         :     1.9889 
 a2 scaling factor         :     4.4211 
 ad hoc parameters k1-k3   :    16.0000     1.3333    -4.0000 

 Edisp/kcal,au: -9.605824651628  -0.015307854342 
 E6   /kcal   :  -4.706721498 
 E8   /kcal   :  -4.899103153 
 % E8         :  51.001380213 

-------------------------   ----------------
Dispersion correction           -0.015307854
-------------------------   ----------------


-------------------------   --------------------
FINAL SINGLE POINT ENERGY      -232.013903816476
-------------------------   --------------------



           ************************************************************
           *        Program running with 6 parallel MPI-processes     *
           *              working on a common directory               *
           ************************************************************
------------------------------------------------------------------------------
                         ORCA SCF GRADIENT CALCULATION
------------------------------------------------------------------------------

Nuc. rep. gradient        (SHARK) ... done (  0.0 sec)
HCore & Overlap gradient  (SHARK) ... done (  0.0 sec)
Split-RIJ-J gradient      (SHARK) ... done (  0.2 sec)
done (  3.1 sec)
XC gradient                       ... done (  0.6 sec)
Dispersion correction             ... done (  0.1 sec)

-------------------
DISPERSION GRADIENT
-------------------

   1   C   :    0.000448028    0.000105569    0.000040830
   2   C   :   -0.000020337   -0.000012527    0.000174844
   3   H   :    0.000286349    0.000065988   -0.000103777
   4   H   :    0.000276304   -0.000050497    0.000052987
   5   H   :    0.000206207    0.000056944    0.000029781
   6   C   :   -0.000228403   -0.000056790    0.000101811
   7   O   :   -0.000285158    0.000126904    0.000015431
   8   C   :   -0.000284442   -0.000314564   -0.000041364
   9   H   :   -0.000068095   -0.000254375   -0.000128483
  10   H   :   -0.000113349   -0.000174433   -0.000096145
  11   H   :   -0.000050560    0.000131291   -0.000203811
  12   H   :   -0.000183186    0.000181093    0.000042165
  13   H   :    0.000016643    0.000195397    0.000115730

Difference to translation invariance:
           :   -0.0000000000   -0.0000000000    0.0000000000

Difference to rotation invariance:
           :   -0.0000000000   -0.0000000000    0.0000000000

Norm of the Dispersion gradient    ...    0.0010652806
RMS gradient                       ...    0.0001705814
MAX gradient                       ...    0.0004480285

------------------
CARTESIAN GRADIENT
------------------

   1   C   :   -0.000006750    0.000130883   -0.000028091
   2   C   :    0.000099350   -0.000015616    0.000074404
   3   H   :   -0.000019594   -0.000026935   -0.000048175
   4   H   :    0.000013743   -0.000025771    0.000009186
   5   H   :   -0.000065963   -0.000024507    0.000056478
   6   C   :    0.000069771   -0.000066956   -0.000092513
   7   O   :   -0.000002944   -0.000083306    0.000002903
   8   C   :   -0.000021744    0.000122438   -0.000045688
   9   H   :   -0.000081464    0.000000702    0.000026127
  10   H   :    0.000023212   -0.000016446    0.000021997
  11   H   :   -0.000014140   -0.000002404    0.000046315
  12   H   :    0.000012190    0.000042198    0.000015792
  13   H   :   -0.000005667   -0.000034281   -0.000038736

Difference to translation invariance:
           :   -0.0000000001   -0.0000000000   -0.0000000000

Difference to rotation invariance:
           :    0.0000909343    0.0000373065   -0.0000501987

Norm of the Cartesian gradient     ...    0.0003230978
RMS gradient                       ...    0.0000517370
MAX gradient                       ...    0.0001308833

-------
TIMINGS
-------

Total SCF gradient time     ....        4.061 sec

Densities                   ....       0.000 sec  (  0.0%)
One electron gradient       ....       0.030 sec  (  0.7%)
RI-J Coulomb gradient       ....       0.188 sec  (  4.6%)
COSX gradient               ....       3.146 sec  ( 77.5%)
XC gradient                 ....       0.641 sec  ( 15.8%)

Maximum memory used throughout the entire SCFGRAD-calculation: 27.5 MB


           ************************************************************
           *        Program running with 6 parallel MPI-processes     *
           *              working on a common directory               *
           ************************************************************

------------------------------------------------------------------------------
                              ORCA PROPERTY CALCULATIONS
------------------------------------------------------------------------------

GBWName                                 ... orca.gbw
Number of atoms                         ...     13
Number of basis functions               ...    110
Max core memory                         ...   4096 MB

Electric properties:
Dipole moment                           ... YES
Quadrupole moment                       ...  NO
Static polarizability (Dipole/Dipole)   ...  NO
Static polarizability (Dipole/Quad.)    ...  NO
Static polarizability (Quad./Quad.)     ...  NO
Static polarizability (Velocity)        ...  NO
Static hyperpolarizability              ...  NO

Atomic electric properties:
Dipole moment                           ...  NO
Quadrupole moment                       ...  NO
Static polarizability                   ...  NO

Choice of electric origin               ... Center of mass
Position of electric origin             ...    -0.780457     0.219003    -0.081479

General magnetic properties:
Magnetizability                         ...  NO

EPR properties:
g-Tensor (aka g-matrix)                 ...  NO
Zero-Field splitting spin-orbit         ...  NO
Zero-field splitting spin-spin          ...  NO
Hyperfine couplings                     ...  NO (   0 nuclei)
Quadrupole couplings                    ...  NO (   0 nuclei)
Contact density                         ...  NO (   0 nuclei)

NMR properties:
Chemical shifts                         ...  NO (   0 nuclei)
Spin-rotation constants                 ...  NO (   0 nuclei)
Spin-spin couplings                     ...  NO (   0 nuclei,    0 pairs)

Choice of magnetic origin               ... GIAO
Position of magnetic origin             ...     0.000000     0.000000     0.000000

Properties with geometric perturbations:
SCF Hessian                             ...  NO
IR spectrum                             ...  NO
VCD spectrum                            ...  NO
X-ray spectroscopy properties:
SCF XES/XAS/RIXS spectra                ...  NO

SCF SOC stabilization energy            ...  NO
Diagonal Born-Oppenheimer correction    ...  NO

-------------
DIPOLE MOMENT
-------------

Method             : SCF
Type of density    : Electron Density
Multiplicity       :   1
Irrep              :   0
Energy             :  -231.9985959621340896 Eh
Basis              : AO
                                X                 Y                 Z
Electronic contribution:     -4.728903133       1.794166056      -0.153796369
Nuclear contribution   :      4.902054750      -1.342134303       0.602708350
                        -----------------------------------------
Total Dipole Moment    :      0.173151616       0.452031753       0.448911980
                        -----------------------------------------
Magnitude (a.u.)       :      0.660178880
Magnitude (Debye)      :      1.678041358



--------------------
Rotational spectrum 
--------------------
 
Rotational constants in cm-1:             0.300775             0.123858             0.090730 
Rotational constants in MHz :          9016.997529          3713.159460          2720.019652 

Dipole components along the rotational axes: 
x,y,z [a.u.] :     0.230713     0.581393     0.211164 
x,y,z [Debye]:     0.586426     1.477783     0.536737 

 

Dipole moment calculation done in   0.0 sec 

Maximum memory used throughout the entire PROP-calculation: 5.6 MB

--------------------------------
SUGGESTED CITATIONS FOR THIS RUN
--------------------------------

Below you find a list of papers that are relevant to this ORCA run
We neither can nor want to force you to cite these papers, but we appreciate if you do
You receive ORCA, which is the product of decades of hard work by many enthusiastic individuals, for free
The only thing we kindly ask in return is that you cite our papers,
We deeply appreciate it, if you show your appreciation for ORCA by not just citing the generic ORCA reference.

Please note that relegating all ORCA citations to the supporting information does *not* help us.
SI sections are not indexed - citations you put there will not count into any citation statistics
But we need these citations in order to attract the funding resources that allow us to do what we are doing

Therefore, if you are a happy ORCA user, please consider citing a few of the papers listed below in the main body of your paper

In addition to the list printed below, the program has created the file orca.bibtex that contains the list in bibtex format
You can import this file easily into all common literature databanks and citation aid programs


List of essential papers. We consider these as the minimum necessary citations

  1. Neese, F.
     Software update: the ORCA program system, version 6.0
     WIRES Comput. Molec. Sci. 2025 15(1), e70019
     doi.org/10.1002/wcms.7019

List of papers to cite with high priority. The work reported in these papers was absolutely
necessary for this run to complete.
Our perspective: the developers of density functionals and basis sets usually get cited in chemistry papers
Good! But without the algorithms to do something with them, the functionals or basis sets would not do anything.
Hence, in our opinion, the algorithm design and method developments papers are equally worthy of getting cited

  1. Neese, F.
     An improvement of the resolution of the identity approximation for the formation of the Coulomb matrix
     J. Comp. Chem. 2003 24(14), 1740-1747
     doi.org/10.1002/jcc.10318
  2. Neese, F.; Wennmohs, F.; Hansen, A.; Becker, U.
     Efficient, approximate and parallel Hartree-Fock and hybrid DFT calculations. A 'chain-of-spheres' algorithm for the Hartree-Fock exchange
     Chem. Phys. 2009 356(1-3), 98-109
     doi.org/10.1016/j.chemphys.2008.10.036
  3. Grimme, S.; Antony, J.; Ehrlich, S.; Krieg, H.
     A consistent and accurate ab initio parametrization of density functional dispersion correction (DFT-D) for the 94 elements H-Pu
     J. Chem. Phys. 2010 132 , 154104
     doi.org/10.1063/1.3382344
  4. Grimme, S.; Ehrlich, S.; Goerigk, L.
     Effect of the damping function in dispersion corrected density functional theory
     J. Comput. Chem. 2011 32(7), 1456-1465
     doi.org/10.1002/jcc.21759
  5. Helmich-Paris, B.; de Souza, B.; Neese, F.; Izsák, R.
     An improved chain of spheres for exchange algorithm
     J. Chem. Phys. 2021 155(10), 104109
     doi.org/10.1063/5.0058766
  6. Neese, F.
     The SHARK Integral Generation and Digestion System
     J. Comp. Chem. 2022 44(3), 381
     doi.org/10.1002/jcc.26942

List of suggested additional citations. These are papers that are important in the 'surrounding' of 
of this run, or papers that preceded the highly important papers. If you like your results we are grateful for a citation.

  1. Izsak, R.; Neese, F.
     An overlap fitted chain of spheres exchange method
     J. Chem. Phys. 2011 135 , 144105
     doi.org/10.1063/1.3646921
  2. Izsak, R.; Hansen, A.; Neese, F.
     The resolution of identity and chain of spheres approximations for the LPNO-CCSD singles Fock term
     Molec. Phys. 2012 110 , 2413-2417
     doi.org/10.1080/00268976.2012.687466
  3. Neese, F.
     The ORCA program system
     WIRES Comput. Molec. Sci. 2012 2(1), 73-78
     doi.org/10.1002/wcms.81
  4. Izsak, R.; Neese, F.; Klopper, W.
     Robust fitting techniques in the chain of spheres approximation to the Fock exchange: The role of the complementary space
     J. Chem. Phys. 2013 139 , 
     doi.org/10.1063/1.4819264
  5. Neese, F.
     Software update: the ORCA program system, version 4.0
     WIRES Comput. Molec. Sci. 2018 8(1), 1-6
     doi.org/10.1002/wcms.1327
  6. Neese, F.; Wennmohs, F.; Becker, U.; Riplinger, C.
     The ORCA quantum chemistry program package
     J. Chem. Phys. 2020 152(22), 224108
     doi.org/10.1063/5.0004608
  7. Neese, F.
     Software update: The ORCA program system—Version 5.0
     WIRES Comput. Molec. Sci. 2022 12(1), e1606
     doi.org/10.1002/wcms.1606

List of optional additional citations

  1. Neese, F.
     Approximate second-order SCF convergence for spin unrestricted wavefunctions
     Chem. Phys. Lett. 2000 325(1-3), 93-98
     doi.org/10.1016/s0009-2614(00)00662-x

Timings for individual modules:

Sum of individual times          ...       13.294 sec (=   0.222 min)
Startup calculation              ...        1.116 sec (=   0.019 min)   8.4 %
SCF iterations                   ...        7.198 sec (=   0.120 min)  54.1 %
Property calculations            ...        0.472 sec (=   0.008 min)   3.5 %
SCF Gradient evaluation          ...        4.508 sec (=   0.075 min)  33.9 %
                             ****ORCA TERMINATED NORMALLY****
TOTAL RUN TIME: 0 days 0 hours 0 minutes 13 seconds 859 msec
