
                                 *****************
                                 * O   R   C   A *
                                 *****************

                                            #,                                       
                                            ###                                      
                                            ####                                     
                                            #####                                    
                                            ######                                   
                                           ########,                                 
                                     ,,################,,,,,                         
                               ,,#################################,,                 
                          ,,##########################################,,             
                       ,#########################################, ''#####,          
                    ,#############################################,,   '####,        
                  ,##################################################,,,,####,       
                ,###########''''           ''''###############################       
              ,#####''   ,,,,##########,,,,          '''####'''          '####       
            ,##' ,,,,###########################,,,                        '##       
           ' ,,###''''                  '''############,,,                           
         ,,##''                                '''############,,,,        ,,,,,,###''
      ,#''                                            '''#######################'''  
     '                                                          ''''####''''         
             ,#######,   #######,   ,#######,      ##                                
            ,#'     '#,  ##    ##  ,#'     '#,    #''#        ,####,    ,#,          
            ##       ##  ##   ,#'  ##            #'  '#       #'       ,# #          
            ##       ##  #######   ##           ,######,      #####,      #          
            '#,     ,#'  ##    ##  '#,     ,#' ,#      #,     #,   #      #          
             '#######'   ##     ##  '#######'  #'      '#     '####' #    #          



                #########################################################
                #                        -***-                          #
                #          Department of theory and spectroscopy        #
                #                                                       #
                #                      Frank Neese                      #
                #                                                       #
                #     Directorship, Architecture, Infrastructure        #
                #                    SHARK, DRIVERS                     #
                #        Core code/Algorithms in most modules           #
                #                                                       #
                #        Max Planck Institute fuer Kohlenforschung      #
                #                Kaiser Wilhelm Platz 1                 #
                #                 D-45470 Muelheim/Ruhr                 #
                #                      Germany                          #
                #                                                       #
                #                  All rights reserved                  #
                #                        -***-                          #
                #########################################################


                         Program Version 6.1.0  -  RELEASE   -
                                (GIT: $679e74b$)
                          ($2025-06-10 18:02:51 +0200$)


 With contributions from (in alphabetic order):
[Max-Planck-Institut fuer Kohlenforschung]                               
  Daniel Aravena         : Magnetic Suceptibility                        
  Michael Atanasov       : Ab Initio Ligand Field Theory (pilot matlab implementation)
  Alexander A. Auer      : GIAO ZORA, VPT2 properties, NMR spectrum      
  Ute Becker             : All parallelization in ORCA, NUMFREQ, NUMCALC 
  Giovanni Bistoni       : ED, misc. LED, open-shell LED, HFLD           
  Dmytro Bykov           : pre 5.0 version of the SCF Hessian            
  Marcos Casanova-Páez   : Triplet and SCS-CIS(D). UHF-(DLPNO)-IP/EA/STEOM-CCSD. UHF-CVS-IP/STEOM-CCSD   
  Vijay G. Chilkuri      : MRCI spin determinant printing, contributions to CSF-ICE 
  Pauline Colinet        : FMM embedding                                 
  Dipayan Datta          : RHF DLPNO-CCSD density                        
  Achintya Kumar Dutta   : EOM-CC, STEOM-CC                              
  Nicolas Foglia         : Exact transition moments, OPA infrastructure, MCD improvements    
  Dmitry Ganyushin       : Spin-Orbit,Spin-Spin,Magnetic field MRCI      
  Miquel Garcia-Rates    : C-PCM and meta-GGA Hessian, CCSD/C-PCM, Gaussian charge scheme 
  Tiago L. C. Gouveia    : GS-ROHF, GS-ROCIS                             
  Yang Guo               : DLPNO-NEVPT2, F12-NEVPT2, CIM, IAO-localization        
  Andreas Hansen         : Spin unrestricted coupled pair/coupled cluster methods 
  Ingolf Harden          : AUTO-CI MPn and infrastructure                
  Benjamin Helmich-Paris : MC-RPA, TRAH-(SCF,CASSCF), AVAS, COSX integrals, SCF dyn. polar., MC-PDFT, srDFT 
  Lee Huntington         : MR-EOM, pCC                                   
  Robert Izsak           : Overlap fitted RIJCOSX, COSX-SCS-MP3, EOM     
  Riya Kayal             : Wick's Theorem for AUTO-CI, AUTO-CI UHF-CCSDT 
  Emily Kempfer          : AUTO-CI RHF CISDT and CCSDT, approximate NEVPT4
  Christian Kollmar      : KDIIS, OOCD, Brueckner-CCSD(T), CCSD density, CASPT2, CASPT2-K, improved NEVPT2 
  Axel Koslowski         : Symmetry handling                             
  Simone Kossmann        : meta-GGA functionals, TD-DFT gradient, OOMP2, (MP2 Hessian; deprecated post 5.0) 
  Lucas Lang             : DCDCAS, Hyperfine gauge corrections, ICE-SOC+SSC
  Marvin Lechner         : AUTO-CI (C++ implementation), FIC-MRCC        
  Spencer Leger          : CASSCF response                               
  Dagmar Lenk            : GEPOL surface, SMD, ORCA-2-JSON               
  Dimitrios Liakos       : Extrapolation schemes; Compound Job, Property file
  Dimitrios Manganas     : Further ROCIS development; embedding schemes. LFT, Crystal Embedding 
  Dimitrios Pantazis     : SARC Basis sets                               
  Anastasios Papadopoulos: AUTO-CI, single reference methods and gradients 
  Taras Petrenko         : pre 6.0 DFT Hessian and TD-DFT gradient,  ECA, NRVS 
  Petra Pikulova         : Analytic Raman intensities                    
  Peter Pinski           : DLPNO-MP2, DLPNO-MP2 Gradient                 
  Shashank Vittal Rao    : ES-AILFT, MagRelax                            
  Christoph Reimann      : Effective Core Potentials                     
  Marius Retegan         : Local ZFS, SOC                                
  Christoph Riplinger    : Optimizer, TS searches, QM/MM, DLPNO-CCSD(T), (RO)-DLPNO pert. Triples 
  Michael Roemelt        : Original ROCIS implementation, recursive CI coupling coefficients
  Masaaki Saitow         : Open-shell DLPNO-CCSD energy and density      
  Barbara Sandhoefer     : DKH picture change effects                    
  Yorick L. A. Schmerwitz: GMF and freeze-and-release deltaSCF, NEB S-IDPP initial path                    
  Kantharuban Sivalingam : CASSCF convergence/infrastructure, NEVPT2, NEVPT3, NEVPT4(SD), FIC-MRCI and CEPA variants
  Bernardo de Souza      : ESD, SOC TD-DFT                               
  Georgi L. Stoychev     : AutoAux, RI-MP2 NMR, DLPNO-MP2 response, X2C  
  Van Anh Tran           : RI-MP2 g-tensors                              
  Willem Van den Heuvel  : Paramagnetic NMR                              
  Zikuan Wang            : NOTCH, Electric field optimization            
  Frank Wennmohs         : Technical directorship and infrastructure     
  Hang Xu                : AUTO-CI-Response properties                   
                                                                         
[FACCTs GmbH]                                                            
  Markus Bursch, Nicolas Foglia, Miquel Garcia-Rates, Ingolf Harden, Hagen Neugebauer, Anastasios Papadopoulos, 
  Christoph Riplinger, Bernardo de Souza, Georgi L. Stoychev                                                    
                                                                 
  APM, various basis sets, CI-OPT, improved COSX, DLPNO-Multilevel,           
  DOCKER, DRACO, updates on ESD, Fragmentator, GOAT, IRC, LR-CPCM, L-BFGS, MBIS, meta-GGA TD-DFT gradient, ML-optimized integration grids, 
  MM, NACMEs, nearIR, NEB, NEB-TS, NL-DFT gradient (VV10), 2- and 3-layer-ONIOM, interface openCOSMO-RS, QMMM,   
  Crystal-QMMM, RESP, rigid body optimization, SF, symmetry and pop. for TD-DFT, various functionals, SOLVATOR                                   
                                                                         
[Other institutions]                                                     
  V. Asgeirsson          : NEB                                           
  Christoph Bannwarth    : sTDA-DFT, sTD-DFT, PBEh-3c, B97-3c, D3        
  Giovanni Bistoni       : ETS/NOCV, ADLD/ADEX, COVALED                  
  Martin Brehm           : Molecular dynamics                            
  Ronald Cardenas        : ETS/NOCV                                      
  Martina Colucci        : COVALED                                       
  Sebastian Ehlert       : rSCAN, r2SCAN, r2SCAN-3c, D4, dhf basis sets  
  Marvin Friede          : D4 for Fr, Ra, Ac-Lr                          
  Lars Goerigk           : TD-DFT with DH, B97 family of functionals     
  Stefan Grimme          : VdW corrections, initial TS optimization, DFT functionals, gCP, sTDA/sTD-DF 
  Waldemar Hujo          : DFT-NL                                        
  H. Jonsson             : NEB                                           
  Holger Kruse           : gCP                                           
  Marcel Mueller         : wB97X-3c, vDZP basis set                      
  Hagen Neugebauer       : wr2SCAN, Native XTB                           
  Gianluca Regni         : ADLD/ADEX                                     
  Tobias Risthaus        : pre 6.0 range-separated hybrid DFT and stability analysis
  Lukas Wittmann         : regularized MP2, r2SCAN double-hybrids, wr2SCAN        
                                                                         
We gratefully acknowledge several colleagues who have allowed us to      
interface, adapt or use parts of their codes:                            
  Ed Valeev, F. Pavosevic, A. Kumar             : LibInt (2-el integral package), F12 methods 
  Garnet Chan, S. Sharma, J. Yang, R. Olivares  : DMRG                   
  Ulf Ekstrom                                   : XCFun DFT Library      
  Mihaly Kallay                                 : mrcc  (arbitrary order and MRCC methods)
  Frank Weinhold                                : gennbo (NPA and NBO analysis)           
  Simon Mueller                                 : openCOSMO-RS                            
  Christopher J. Cramer and Donald G. Truhlar   : smd solvation model                     
  S Lehtola, MJT Oliveira, MAL Marques          : LibXC Library                           
  Liviu Ungur et al                             : ANISO software                          


 Your calculation uses the libint2 library for the computation of 2-el integrals
 For citations please refer to: http://libint.valeyev.net

 Your ORCA version has been built with support for libXC version: 7.0.0
 For citations please refer to: https://libxc.gitlab.io

 This ORCA versions uses:
   CBLAS   interface :  Fast vector & matrix operations
   LAPACKE interface :  Fast linear algebra routines
   SCALAPACK package :  Parallel linear algebra routines
   Shared memory     :  Shared parallel matrices
   BLAS/LAPACK       :  OpenBLAS 0.3.29  USE64BITINT DYNAMIC_ARCH NO_AFFINITY Zen SINGLE_THREADED
        Core in use  :  Zen
   Copyright (c) 2011-2014, The OpenBLAS Project


  ***********************************
  * Starting time: Wed Sep 10 13:35:44 2025
  * Host name:     wyk-Server
  * Process ID:    2293899
  * Working dir.:  /home/wyk/Documents/code/openQDC/MGMR/singlepointcalc/65/react
  ***********************************

Your calculation utilizes the atom-pairwise dispersion correction
with the Becke-Johnson damping scheme (D3BJ)


Warning: RI is on but no J-basis has been assigned. Assigning Def2/J (nothing to worry about!)
================================================================================

----- Orbital basis set information -----
Your calculation utilizes the basis: def2-SVP
   F. Weigend and R. Ahlrichs, Phys. Chem. Chem. Phys. 7, 3297 (2005).

----- AuxJ basis set information -----
Your calculation utilizes the auxiliary basis: def2/J
   H-Rn: F. Weigend, Phys. Chem. Chem. Phys. 8, 1057 (2006).
   Fr-Lr: K. Eichkorn, F. Weigend, O. Treutler, R. Ahlrichs; Theor. Chem. Acc. 97, 119 (1997).

================================================================================
                                        WARNINGS
                       Please study these warnings very carefully!
================================================================================


================================================================================
                                       INPUT FILE
================================================================================
NAME = orca.inp
|  1> ! B3LYP def2-SVP d3 EnGrad 
|  2> %pal nprocs 6 end 
|  3> *xyz 0 1 
|  4> H   -1.72553593658861 -2.73243918709445 1.96481224619867
|  5> O   -0.97371445312841 -2.94966314166987 2.53357314823646
|  6> O   0.73098729320522 -4.33553100615774 0.57697526650621
|  7> S   0.56393500160194 -3.01151848443208 0.01663783647659
|  8> Cl   1.73665076806416 -2.93859338509947 -1.72098653777469
|  9> Cl   1.62959793728626 -1.63976036564593 1.15332652506618
| 10> O   -0.72614926545262 -2.45157586004411 -0.32825832479069
| 11> H   -0.93693234498795 -3.91567256985634 2.49836284008126
| 12> *
| 13> 
| 14>                          ****END OF INPUT****
================================================================================

                     *******************************
                     * Energy+Gradient Calculation *
                     *******************************

---------------------------------
CARTESIAN COORDINATES (ANGSTROEM)
---------------------------------
  H     -1.725536   -2.732439    1.964812
  O     -0.973714   -2.949663    2.533573
  O      0.730987   -4.335531    0.576975
  S      0.563935   -3.011518    0.016638
  Cl     1.736651   -2.938593   -1.720987
  Cl     1.629598   -1.639760    1.153327
  O     -0.726149   -2.451576   -0.328258
  H     -0.936932   -3.915673    2.498363

----------------------------
CARTESIAN COORDINATES (A.U.)
----------------------------
  NO LB      ZA    FRAG     MASS         X           Y           Z
   0 H     1.0000    0     1.008   -3.260790   -5.163562    3.712957
   1 O     8.0000    0    15.999   -1.840054   -5.574056    4.787759
   2 O     8.0000    0    15.999    1.381366   -8.192966    1.090325
   3 S    16.0000    0    32.060    1.065683   -5.690945    0.031441
   4 Cl   17.0000    0    35.453    3.281794   -5.553137   -3.252193
   5 Cl   17.0000    0    35.453    3.079494   -3.098698    2.179471
   6 O     8.0000    0    15.999   -1.372223   -4.632807   -0.620318
   7 H     1.0000    0     1.008   -1.770546   -7.399549    4.721222

--------------------------------
INTERNAL COORDINATES (ANGSTROEM)
--------------------------------
 H      0   0   0     0.000000000000     0.00000000     0.00000000
 O      1   0   0     0.967424804892     0.00000000     0.00000000
 O      2   1   0     2.941923359397    99.50200925     0.00000000
 S      3   2   1     1.447374748055    76.09419253    59.69964693
 Cl     4   3   2     2.097598342156   106.73695085   176.39158909
 Cl     4   3   2     2.075914016455   109.46580887    71.00366813
 O      4   3   2     1.448035400384   123.28271233   300.19396688
 H      2   1   3     0.967350455949   103.43707517   299.90770509

---------------------------
INTERNAL COORDINATES (A.U.)
---------------------------
 H      0   0   0     0.000000000000     0.00000000     0.00000000
 O      1   0   0     1.828167936408     0.00000000     0.00000000
 O      2   1   0     5.559429456245    99.50200925     0.00000000
 S      3   2   1     2.735141886978    76.09419253    59.69964693
 Cl     4   3   2     3.963886405641   106.73695085   176.39158909
 Cl     4   3   2     3.922908968669   109.46580887    71.00366813
 O      4   3   2     2.736390338949   123.28271233   300.19396688
 H      2   1   3     1.828027437268   103.43707517   299.90770509

---------------------
BASIS SET INFORMATION
---------------------
There are 4 groups of distinct atoms

 Group   1 Type H   : 4s1p contracted to 2s1p pattern {31/1}
 Group   2 Type O   : 7s4p1d contracted to 3s2p1d pattern {511/31/1}
 Group   3 Type S   : 10s7p1d contracted to 4s3p1d pattern {5311/511/1}
 Group   4 Type Cl  : 10s7p1d contracted to 4s3p1d pattern {5311/511/1}

Atom   0H    basis set group =>   1
Atom   1O    basis set group =>   2
Atom   2O    basis set group =>   2
Atom   3S    basis set group =>   3
Atom   4Cl   basis set group =>   4
Atom   5Cl   basis set group =>   4
Atom   6O    basis set group =>   2
Atom   7H    basis set group =>   1
---------------------------------
AUXILIARY/J BASIS SET INFORMATION
---------------------------------
There are 4 groups of distinct atoms

 Group   1 Type H   : 5s2p1d contracted to 3s1p1d pattern {311/2/1}
 Group   2 Type O   : 12s5p4d2f1g contracted to 6s4p3d1f1g pattern {711111/2111/211/2/1}
 Group   3 Type S   : 14s5p5d2f1g contracted to 8s4p3d1f1g pattern {71111111/2111/311/2/1}
 Group   4 Type Cl  : 14s5p5d2f1g contracted to 8s4p3d1f1g pattern {71111111/2111/311/2/1}

Atom   0H    basis set group =>   1
Atom   1O    basis set group =>   2
Atom   2O    basis set group =>   2
Atom   3S    basis set group =>   3
Atom   4Cl   basis set group =>   4
Atom   5Cl   basis set group =>   4
Atom   6O    basis set group =>   2
Atom   7H    basis set group =>   1


           ************************************************************
           *        Program running with 6 parallel MPI-processes     *
           *              working on a common directory               *
           ************************************************************
------------------------------------------------------------------------------
                             ORCA STARTUP CALCULATIONS
                           -- RI-GTO INTEGRALS CHOSEN --
------------------------------------------------------------------------------
------------------------------------------------------------------------------
                   ___                                                        
                  /   \      - P O W E R E D   B Y -                         
                 /     \                                                     
                 |  |  |   _    _      __       _____    __    __             
                 |  |  |  | |  | |    /  \     |  _  \  |  |  /  |          
                  \  \/   | |  | |   /    \    | | | |  |  | /  /          
                 / \  \   | |__| |  /  /\  \   | |_| |  |  |/  /          
                |  |  |   |  __  | /  /__\  \  |    /   |      \           
                |  |  |   | |  | | |   __   |  |    \   |  |\   \          
                \     /   | |  | | |  |  |  |  | |\  \  |  | \   \       
                 \___/    |_|  |_| |__|  |__|  |_| \__\ |__|  \__/        
                                                                              
                      - O R C A' S   B I G   F R I E N D -                    
                                      &                                       
                       - I N T E G R A L  F E E D E R -                       
                                                                              
 v1 FN, 2020, v2 2021, v3 2022-2024                                           
------------------------------------------------------------------------------


----------------------
SHARK INTEGRAL PACKAGE
----------------------

Number of atoms                             ...      8
Number of basis functions                   ...    106
Number of shells                            ...     48
Maximum angular momentum                    ...      2
Integral batch strategy                     ... SHARK/LIBINT Hybrid
RI-J (if used) integral strategy            ... SPLIT-RIJ (Revised 2003 algorithm where possible)
Printlevel                                  ...      1
Contraction scheme used                     ... SEGMENTED contraction
Prescreening option                         ... SCHWARTZ
   Thresh                                   ... 2.500e-11
   Tcut                                     ... 2.500e-12
   Tpresel                                  ... 2.500e-12 
Coulomb Range Separation                    ... NOT USED
Exchange Range Separation                   ... NOT USED
Multipole approximations                    ... NOT USED
Finite Nucleus Model                        ... NOT USED
CABS basis                                  ... NOT available
Auxiliary Coulomb fitting basis             ... AVAILABLE
   # of basis functions in Aux-J            ...    322
   # of shells in Aux-J                     ...    106
   Maximum angular momentum in Aux-J        ...      4
Auxiliary J/K fitting basis                 ... NOT available
Auxiliary Correlation fitting basis         ... NOT available
Auxiliary 'external' fitting basis          ... NOT available

Checking pre-screening integrals            ... done (  0.0 sec) Dimension = 48
   => SHARK Basis and OBASIS are compatible. Storing Pre-screening
Shell pair information
Shell pair cut-off parameter TPreSel        ...   2.5e-12
Total number of shell pairs                 ...      1176
Shell pairs after pre-screening             ...      1070
Total number of primitive shell pairs       ...      5164
Primitive shell pairs kept                  ...      3241
          la=0 lb=0:    288 shell pairs
          la=1 lb=0:    387 shell pairs
          la=1 lb=1:    145 shell pairs
          la=2 lb=0:    134 shell pairs
          la=2 lb=1:     96 shell pairs
          la=2 lb=2:     20 shell pairs

Checking whether 4 symmetric matrices of dimension 106 fit in memory
:Max Core in MB      =   4096.00
 MB in use           =      4.71
 MB left             =   4091.29
 MB needed           =      0.17
 Data fit in memory  = YES
Calculating RI/J V-Matrix + Cholesky decomp.... done (  0.0 sec)
Calculating Nuclear repulsion               ... done (  0.0 sec) ENN=    504.854331606414 Eh

Diagonalization of the overlap matrix:
Smallest eigenvalue                        ... 8.691e-03
Time for diagonalization                   ...    0.002 sec
Threshold for overlap eigenvalues          ... 1.000e-07
Number of eigenvalues below threshold      ... 0
Time for construction of square roots      ...    0.001 sec
Total time needed                          ...    0.004 sec

-------------------
DFT GRID GENERATION
-------------------

General Integration Accuracy     IntAcc      ... 4.388
Radial Grid Type                 RadialGrid  ... OptM3 with GC (2021)
Angular Grid (max. ang.)         AngularGrid ... 4 (Lebedev-302)
Angular grid pruning method      GridPruning ... 4 (adaptive)
Weight generation scheme         WeightScheme... mBecke (2022)
Basis function cutoff            BFCut       ... 1.0000e-11
Integration weight cutoff        WCut        ... 1.0000e-14
Partially contracted basis set               ... off
Rotationally invariant grid construction     ... off
Angular grids for H and He will be reduced by one unit

Total number of grid points                  ...    46912
Total number of batches                      ...      737
Average number of points per batch           ...       63
Average number of grid points per atom       ...     5864

--------------------
COSX GRID GENERATION
--------------------

GRIDX 1
-------
General Integration Accuracy     IntAcc      ... 3.816
Radial Grid Type                 RadialGrid  ... OptM3 with GC (2021)
Angular Grid (max. ang.)         AngularGrid ... 1 (Lebedev-50)
Angular grid pruning method      GridPruning ... 4 (adaptive)
Weight generation scheme         WeightScheme... mBecke (2022)
Basis function cutoff            BFCut       ... 1.0000e-11
Integration weight cutoff        WCut        ... 1.0000e-14
Partially contracted basis set               ... on
Rotationally invariant grid construction     ... off
Angular grids for H and He will be reduced by one unit

Total number of grid points                  ...     9073
Total number of batches                      ...       76
Average number of points per batch           ...      119
Average number of grid points per atom       ...     1134
UseSFitting                                  ... on

GRIDX 2
-------
General Integration Accuracy     IntAcc      ... 4.020
Radial Grid Type                 RadialGrid  ... OptM3 with GC (2021)
Angular Grid (max. ang.)         AngularGrid ... 2 (Lebedev-110)
Angular grid pruning method      GridPruning ... 4 (adaptive)
Weight generation scheme         WeightScheme... mBecke (2022)
Basis function cutoff            BFCut       ... 1.0000e-11
Integration weight cutoff        WCut        ... 1.0000e-14
Partially contracted basis set               ... on
Rotationally invariant grid construction     ... off
Angular grids for H and He will be reduced by one unit

Total number of grid points                  ...    13046
Total number of batches                      ...      107
Average number of points per batch           ...      121
Average number of grid points per atom       ...     1631
UseSFitting                                  ... on

GRIDX 3
-------
General Integration Accuracy     IntAcc      ... 4.338
Radial Grid Type                 RadialGrid  ... OptM3 with GC (2021)
Angular Grid (max. ang.)         AngularGrid ... 3 (Lebedev-194)
Angular grid pruning method      GridPruning ... 4 (adaptive)
Weight generation scheme         WeightScheme... mBecke (2022)
Basis function cutoff            BFCut       ... 1.0000e-11
Integration weight cutoff        WCut        ... 1.0000e-14
Partially contracted basis set               ... on
Rotationally invariant grid construction     ... off
Angular grids for H and He will be reduced by one unit

Total number of grid points                  ...    30724
Total number of batches                      ...      244
Average number of points per batch           ...      125
Average number of grid points per atom       ...     3840
UseSFitting                                  ... on
Grids setup in   0.7 sec
Initializing property integral containers    ... done (  0.0 sec)

SHARK setup successfully completed in   0.8 seconds

Maximum memory used throughout the entire STARTUP-calculation: 14.2 MB


           ************************************************************
           *        Program running with 6 parallel MPI-processes     *
           *              working on a common directory               *
           ************************************************************
-------------------------------------------------------------------------------
                                 ORCA GUESS
                   Start orbitals & Density for SCF / CASSCF
-------------------------------------------------------------------------------

------------
SCF SETTINGS
------------
Hamiltonian:
 Density Functional     Method          .... DFT(GTOs)
 Exchange Functional    Exchange        .... B88
   X-Alpha parameter    XAlpha          ....  0.666667
   Becke's b parameter  XBeta           ....  0.004200
 Correlation Functional Correlation     .... LYP
 LDA part of GGA corr.  LDAOpt          .... VWN-5
 Gradients option       PostSCFGGA      .... off
 Hybrid DFT is turned on
   Fraction HF Exchange ScalHFX         ....  0.200000
   Scaling of DF-GGA-X  ScalDFX         ....  0.720000
   Scaling of DF-GGA-C  ScalDFC         ....  0.810000
   Scaling of DF-LDA-C  ScalLDAC        ....  1.000000
   Perturbative correction              ....  0.000000
   NL short-range parameter             ....  4.800000
 RI-approximation to the Coulomb term is turned on
   Number of AuxJ basis functions       .... 322
   RIJ-COSX (HFX calculated with COS-X)).... on


General Settings:
 Integral files         IntName         .... orca
 Hartree-Fock type      HFTyp           .... RHF
 Total Charge           Charge          ....    0
 Multiplicity           Mult            ....    1
 Number of Electrons    NEL             ....   76
 Basis Dimension        Dim             ....  106
 Nuclear Repulsion      ENuc            ....    504.8543316064 Eh

Convergence Acceleration:
 AO-DIIS                CNVDIIS         .... on
   Start iteration      DIISMaxIt       ....    12
   Startup error        DIISStart       ....  0.200000
   # of expansion vecs  DIISMaxEq       ....     5
   Bias factor          DIISBfac        ....   1.050
   Max. coefficient     DIISMaxC        ....  10.000
 MO-DIIS                CNVKDIIS        .... off
 Trust-Rad. Augm. Hess. CNVTRAH         .... auto
   Auto Start mean grad. ratio tolernc. ....  1.125000
   Auto Start start iteration           ....    50
   Auto Start num. interpolation iter.  ....    10
   Max. Number of Micro iterations      ....    24
   Max. Number of Macro iterations      .... Maxiter - #DIIS iter
   Number of Davidson start vectors     ....     2
   Converg. threshold    (grad. norm)   ....   1.000e-05
   Grad. Scal. Fac. for Micro threshold ....   0.100
   Minimum threshold for Micro iter.    ....   1.000e-02
   NR start threshold (gradient norm)   ....   1.000e-04
   Initial trust radius                 ....   0.400
   Minimum AH scaling param. (alpha)    ....   1.000
   Maximum AH scaling param. (alpha)    .... 1000.000
   Quad. conv. algorithm                .... NR
   White noise on init. David. guess    .... on
   Maximum white noise                  ....   0.010
   Pseudo random numbers                .... off
   Inactive MOs                         .... canonical
   Orbital update algorithm             .... Taylor
   Preconditioner                       .... Diag
   Full preconditioner red. dimension   ....   250
 SOSCF                 CNVSOSCF           .... on
   Start iteration     SOSCFMaxIt         ....   150
   Startup grad/error  SOSCFStart         ....  0.003300
   Hessian update      SOSCFHessUp        .... L-BFGS
   Autom. constraints  SOSCFAutoConstrain .... off
 Level Shifting         CNVShift        .... on
   Level shift para.    LevelShift      ....    0.2500
   Turn off err/grad.   ShiftErr        ....    0.0010
 Zerner damping         CNVZerner       .... off
 Static damping         CNVDamp         .... on
   Fraction old density DampFac         ....    0.7000
   Max. Damping (<1)    DampMax         ....    0.9800
   Min. Damping (>=0)   DampMin         ....    0.0000
   Turn off err/grad.   DampErr         ....    0.1000

SCF Procedure:
 Maximum # iterations   MaxIter         ....   125
 SCF integral mode      SCFMode         .... Direct
   Integral package                     .... SHARK and LIBINT hybrid scheme
 Reset frequency        DirectResetFreq ....    20
 Integral Threshold     Thresh          ....  2.500e-11 Eh
 Primitive CutOff       TCut            ....  2.500e-12 Eh

Convergence Tolerance:
 Convergence Check Mode ConvCheckMode   .... Total+1el-Energy
 Convergence forced     ConvForced      .... 0
 Energy Change          TolE            ....  1.000e-08 Eh
 1-El. energy change                    ....  1.000e-05 Eh
 Orbital Gradient       TolG            ....  1.000e-05
 Orbital Rotation angle TolX            ....  1.000e-05
 DIIS Error             TolErr          ....  5.000e-07

------------------------------
INITIAL GUESS: MODEL POTENTIAL
------------------------------
Loading Hartree-Fock densities                     ... done
Calculating cut-offs                               ... done
Initializing the effective Hamiltonian             ... done
Setting up the integral package (SHARK)            ... done
Starting the Coulomb interaction                   ... done (   0.0 sec)
Making the grid                                    ... done (   0.1 sec)
Mapping shells                                     ... done
Starting the XC term evaluation                    ... done (   0.0 sec)
  promolecular density results
     # of electrons  =     75.998450672
     EX              =   -105.323345245
     EC              =     -3.029249710
     EX+EC           =   -108.352594955
Transforming the Hamiltonian                       ... done (   0.0 sec)
Diagonalizing the Hamiltonian                      ... done (   0.0 sec)
Back transforming the eigenvectors                 ... done (   0.0 sec)
Now organizing SCF variables                       ... done
                      ------------------
                      INITIAL GUESS DONE (   0.1 sec)
                      ------------------
             **** ENERGY FILE WAS UPDATED (orca.en.tmp) ****
Finished Guess after   0.3 sec
Maximum memory used throughout the entire GUESS-calculation: 7.1 MB


           ************************************************************
           *        Program running with 6 parallel MPI-processes     *
           *              working on a common directory               *
           ************************************************************

-------------------------------------------------------------------------------------------
                                      ORCA LEAN-SCF
                              memory conserving SCF solver
-------------------------------------------------------------------------------------------

----------------------------------------D-I-I-S--------------------------------------------
Iteration    Energy (Eh)           Delta-E    RMSDP     MaxDP     DIISErr   Damp  Time(sec)
-------------------------------------------------------------------------------------------
               ***  Starting incremental Fock matrix formation  ***
    1    -1544.1543691475521882     0.00e+00  1.95e-02  2.52e-01  2.97e-01  0.700   0.4
Warning: op=0 Small HOMO/LUMO gap (   0.081) - skipping pre-diagonalization
         Will do a full diagonalization
    2    -1544.3498230230416084    -1.95e-01  9.00e-03  9.58e-02  1.25e-01  0.700   0.3
                               ***Turning on AO-DIIS***
    3    -1544.4055093153624512    -5.57e-02  2.31e-03  1.49e-02  3.51e-02  0.700   0.2
    4    -1544.4429393688992604    -3.74e-02  3.15e-03  2.58e-02  9.04e-03  0.000   0.2
    5    -1544.5317063917073028    -8.88e-02  1.14e-03  7.69e-03  9.39e-03  0.000   0.2
                              *** Initializing SOSCF ***
---------------------------------------S-O-S-C-F--------------------------------------
Iteration    Energy (Eh)           Delta-E    RMSDP     MaxDP     MaxGrad    Time(sec)
--------------------------------------------------------------------------------------
    6    -1544.5320044020286332    -2.98e-04  3.13e-04  1.88e-03  1.02e-03     0.3
               *** Restarting incremental Fock matrix formation ***
    7    -1544.5319305694674767     7.38e-05  2.57e-04  1.70e-03  3.71e-04     0.4
    8    -1544.5319325249352005    -1.96e-06  1.57e-04  8.01e-04  4.82e-04     0.2
    9    -1544.5319354904781903    -2.97e-06  9.04e-05  5.83e-04  1.51e-04     0.3
   10    -1544.5319359076829642    -4.17e-07  3.80e-05  4.94e-04  1.38e-04     0.3
   11    -1544.5319360365378998    -1.29e-07  2.86e-05  1.56e-04  5.24e-05     0.2
   12    -1544.5319361183328510    -8.18e-08  1.37e-05  1.49e-04  3.23e-05     0.3
   13    -1544.5319361065635348     1.18e-08  1.07e-05  1.03e-04  3.59e-05     0.3
   14    -1544.5319361352221676    -2.87e-08  2.49e-06  1.53e-05  4.57e-06     0.3
   15    -1544.5319361376368761    -2.41e-09  1.09e-06  9.37e-06  5.35e-06     0.3
                 **** Energy Check signals convergence ****

               *****************************************************
               *                     SUCCESS                       *
               *           SCF CONVERGED AFTER  15 CYCLES          *
               *****************************************************

Recomputing exchange energy using gridx3       ... done (    0.572 sec)
Old exchange energy                            :    -21.093653128 Eh
New exchange energy                            :    -21.093727556 Eh
Exchange energy change after final integration :     -0.000074428 Eh
Total energy after final integration           :  -1544.532010569 Eh
             **** ENERGY FILE WAS UPDATED (orca.en.tmp) ****

----------------
TOTAL SCF ENERGY
----------------

Total Energy       :      -1544.53201056942385 Eh          -42028.85271 eV

Components:
Nuclear Repulsion  :        504.85433160641412 Eh           13737.78478 eV
Electronic Energy  :      -2049.38626774740533 Eh          -55766.63547 eV
One Electron Energy:      -3135.79997668646956 Eh          -85329.45543 eV
Two Electron Energy:       1086.41370893906424 Eh           29562.81996 eV

Virial components:
Potential Energy   :      -3085.02904839906978 Eh          -83947.90824 eV
Kinetic Energy     :       1540.49703782964593 Eh           41919.05552 eV
Virial Ratio       :          2.00261926679552

DFT components:
N(Alpha)           :       38.000006366787 electrons
N(Beta)            :       38.000006366787 electrons
N(Total)           :       76.000012733574 electrons
E(X)               :      -83.863747340622 Eh       
E(C)               :       -3.546629012498 Eh       
E(XC)              :      -87.410376353120 Eh       

---------------
SCF CONVERGENCE
---------------

  Last Energy change         ...    2.4147e-09  Tolerance :   1.0000e-08
  Last MAX-Density change    ...    9.3705e-06  Tolerance :   1.0000e-07
  Last RMS-Density change    ...    1.0935e-06  Tolerance :   5.0000e-09
  Last DIIS Error            ...    1.0249e-03  Tolerance :   5.0000e-07
  Last Orbital Gradient      ...    5.3540e-06  Tolerance :   1.0000e-05
  Last Orbital Rotation      ...    3.9551e-06  Tolerance :   1.0000e-05


----------------
ORBITAL ENERGIES
----------------

  NO   OCC          E(Eh)            E(eV) 
   0   2.0000    -101.545806     -2763.2019 
   1   2.0000    -101.542631     -2763.1155 
   2   2.0000     -89.139136     -2425.5992 
   3   2.0000     -19.191288      -522.2215 
   4   2.0000     -19.191145      -522.2176 
   5   2.0000     -19.127907      -520.4968 
   6   2.0000      -9.501418      -258.5467 
   7   2.0000      -9.498130      -258.4573 
   8   2.0000      -8.203325      -223.2238 
   9   2.0000      -7.271422      -197.8654 
  10   2.0000      -7.267828      -197.7677 
  11   2.0000      -7.259749      -197.5478 
  12   2.0000      -7.259687      -197.5461 
  13   2.0000      -7.256749      -197.4662 
  14   2.0000      -7.256521      -197.4600 
  15   2.0000      -6.172123      -167.9520 
  16   2.0000      -6.171380      -167.9318 
  17   2.0000      -6.169345      -167.8764 
  18   2.0000      -1.166540       -31.7432 
  19   2.0000      -1.058578       -28.8054 
  20   2.0000      -0.987610       -26.8742 
  21   2.0000      -0.893401       -24.3107 
  22   2.0000      -0.858658       -23.3653 
  23   2.0000      -0.659004       -17.9324 
  24   2.0000      -0.551764       -15.0143 
  25   2.0000      -0.533272       -14.5111 
  26   2.0000      -0.520784       -14.1713 
  27   2.0000      -0.505515       -13.7558 
  28   2.0000      -0.401150       -10.9158 
  29   2.0000      -0.397269       -10.8103 
  30   2.0000      -0.392806       -10.6888 
  31   2.0000      -0.382724       -10.4145 
  32   2.0000      -0.373420       -10.1613 
  33   2.0000      -0.371052       -10.0968 
  34   2.0000      -0.339981        -9.2514 
  35   2.0000      -0.338389        -9.2080 
  36   2.0000      -0.335387        -9.1263 
  37   2.0000      -0.298390        -8.1196 
  38   0.0000      -0.131052        -3.5661 
  39   0.0000      -0.049767        -1.3542 
  40   0.0000       0.037586         1.0228 
  41   0.0000       0.063076         1.7164 
  42   0.0000       0.076523         2.0823 
  43   0.0000       0.137403         3.7389 
  44   0.0000       0.353714         9.6250 
  45   0.0000       0.420372        11.4389 
  46   0.0000       0.443921        12.0797 
  47   0.0000       0.487910        13.2767 
  48   0.0000       0.494784        13.4638 
*Only the first 10 virtual orbitals were printed.

                    ********************************
                    * MULLIKEN POPULATION ANALYSIS *
                    ********************************

-----------------------
MULLIKEN ATOMIC CHARGES
-----------------------
   0 H :    0.154885
   1 O :   -0.295672
   2 O :   -0.365752
   3 S :    0.856784
   4 Cl:   -0.086174
   5 Cl:   -0.049390
   6 O :   -0.369211
   7 H :    0.154529
Sum of atomic charges:   -0.0000000

--------------------------------
MULLIKEN REDUCED ORBITAL CHARGES
--------------------------------
  0 H s       :     0.774461  s :     0.774461
      pz      :     0.025334  p :     0.070653
      px      :     0.027790
      py      :     0.017530

  1 O s       :     3.689159  s :     3.689159
      pz      :     1.740593  p :     4.595761
      px      :     1.557538
      py      :     1.297630
      dz2     :     0.001592  d :     0.010752
      dxz     :     0.003186
      dyz     :     0.000714
      dx2y2   :     0.004809
      dxy     :     0.000450

  2 O s       :     3.861680  s :     3.861680
      pz      :     1.560762  p :     4.484991
      px      :     1.659123
      py      :     1.265106
      dz2     :     0.002777  d :     0.019080
      dxz     :     0.000970
      dyz     :     0.005678
      dx2y2   :     0.005056
      dxy     :     0.004599

  3 S s       :     5.431590  s :     5.431590
      pz      :     3.050262  p :     9.030324
      px      :     2.998290
      py      :     2.981771
      dz2     :     0.093927  d :     0.681303
      dxz     :     0.140122
      dyz     :     0.124742
      dx2y2   :     0.152413
      dxy     :     0.170099

  4 Cls       :     5.960690  s :     5.960690
      pz      :     3.432987  p :    11.099678
      px      :     3.725275
      py      :     3.941416
      dz2     :     0.007345  d :     0.025807
      dxz     :     0.012142
      dyz     :     0.002891
      dx2y2   :     0.002268
      dxy     :     0.001162

  5 Cls       :     5.959176  s :     5.959176
      pz      :     3.706883  p :    11.062263
      px      :     3.744569
      py      :     3.610811
      dz2     :     0.002829  d :     0.027950
      dxz     :     0.005921
      dyz     :     0.008520
      dx2y2   :     0.003227
      dxy     :     0.007453

  6 O s       :     3.861679  s :     3.861679
      pz      :     1.611008  p :     4.488521
      px      :     1.273081
      py      :     1.604431
      dz2     :     0.002350  d :     0.019011
      dxz     :     0.004795
      dyz     :     0.001179
      dx2y2   :     0.005225
      dxy     :     0.005462

  7 H s       :     0.774925  s :     0.774925
      pz      :     0.018317  p :     0.070546
      px      :     0.017326
      py      :     0.034903



                     *******************************
                     * LOEWDIN POPULATION ANALYSIS *
                     *******************************

----------------------
LOEWDIN ATOMIC CHARGES
----------------------
   0 H :    0.069928
   1 O :   -0.148021
   2 O :   -0.424506
   3 S :    0.990864
   4 Cl:   -0.085025
   5 Cl:   -0.047611
   6 O :   -0.426654
   7 H :    0.071024

-------------------------------
LOEWDIN REDUCED ORBITAL CHARGES
-------------------------------
  0 H s       :     0.753767  s :     0.753767
      pz      :     0.066155  p :     0.176304
      px      :     0.077535
      py      :     0.032614

  1 O s       :     3.439568  s :     3.439568
      pz      :     1.728264  p :     4.688770
      px      :     1.587555
      py      :     1.372952
      dz2     :     0.002457  d :     0.019683
      dxz     :     0.006265
      dyz     :     0.000582
      dx2y2   :     0.009991
      dxy     :     0.000389

  2 O s       :     3.696273  s :     3.696273
      pz      :     1.602405  p :     4.697322
      px      :     1.676690
      py      :     1.418227
      dz2     :     0.003929  d :     0.030910
      dxz     :     0.001209
      dyz     :     0.009823
      dx2y2   :     0.010281
      dxy     :     0.005668

  3 S s       :     5.202342  s :     5.202342
      pz      :     3.004656  p :     8.931774
      px      :     2.966900
      py      :     2.960218
      dz2     :     0.118310  d :     0.875020
      dxz     :     0.175423
      dyz     :     0.161995
      dx2y2   :     0.206667
      dxy     :     0.212625

  4 Cls       :     5.911006  s :     5.911006
      pz      :     3.463151  p :    11.143262
      px      :     3.736714
      py      :     3.943396
      dz2     :     0.008850  d :     0.030757
      dxz     :     0.014588
      dyz     :     0.003313
      dx2y2   :     0.002623
      dxy     :     0.001383

  5 Cls       :     5.906502  s :     5.906502
      pz      :     3.721703  p :    11.107779
      px      :     3.754542
      py      :     3.631533
      dz2     :     0.003211  d :     0.033330
      dxz     :     0.007095
      dyz     :     0.010302
      dx2y2   :     0.003815
      dxy     :     0.008906

  6 O s       :     3.696174  s :     3.696174
      pz      :     1.632280  p :     4.699674
      px      :     1.427854
      py      :     1.639540
      dz2     :     0.004205  d :     0.030806
      dxz     :     0.006811
      dyz     :     0.001593
      dx2y2   :     0.008987
      dxy     :     0.009210

  7 H s       :     0.752925  s :     0.752925
      pz      :     0.046008  p :     0.176051
      px      :     0.039577
      py      :     0.090466



                      *****************************
                      * MAYER POPULATION ANALYSIS *
                      *****************************

  NA   - Mulliken gross atomic population
  ZA   - Total nuclear charge
  QA   - Mulliken gross atomic charge
  VA   - Mayer's total valence
  BVA  - Mayer's bonded valence
  FA   - Mayer's free valence

  ATOM       NA         ZA         QA         VA         BVA        FA
  0 H      0.8451     1.0000     0.1549     1.0289     1.0289    -0.0000
  1 O      8.2957     8.0000    -0.2957     2.0668     2.0668    -0.0000
  2 O      8.3658     8.0000    -0.3658     2.0528     2.0528    -0.0000
  3 S     15.1432    16.0000     0.8568     5.1885     5.1885    -0.0000
  4 Cl    17.0862    17.0000    -0.0862     1.1497     1.1497     0.0000
  5 Cl    17.0494    17.0000    -0.0494     1.1868     1.1868     0.0000
  6 O      8.3692     8.0000    -0.3692     2.0494     2.0494     0.0000
  7 H      0.8455     1.0000     0.1545     1.0273     1.0273    -0.0000

  Mayer bond orders larger than 0.100000
B(  0-H ,  1-O ) :   0.9952 B(  1-O ,  7-H ) :   0.9960 B(  2-O ,  3-S ) :   1.7144 
B(  2-O ,  4-Cl) :   0.1073 B(  2-O ,  5-Cl) :   0.1106 B(  3-S ,  4-Cl) :   0.8332 
B(  3-S ,  5-Cl) :   0.8626 B(  3-S ,  6-O ) :   1.7094 B(  4-Cl,  6-O ) :   0.1065 
B(  5-Cl,  6-O ) :   0.1103 

-------
TIMINGS
-------

Total SCF time: 0 days 0 hours 0 min 5 sec 

Total time                  ....       5.098 sec
Sum of individual times     ....       4.801 sec  ( 94.2%)

SCF preparation             ....       0.138 sec  (  2.7%)
Fock matrix formation       ....       4.454 sec  ( 87.4%)
  Startup                   ....       0.004 sec  (  0.1% of F)
  Split-RI-J                ....       0.369 sec  (  8.3% of F)
  Chain of spheres X        ....       3.385 sec  ( 76.0% of F)
  XC integration            ....       0.831 sec  ( 18.7% of F)
    XC Preparation          ....       0.000 sec  (  0.0% of XC)
    Basis function eval.    ....       0.236 sec  ( 28.4% of XC)
    Density eval.           ....       0.115 sec  ( 13.8% of XC)
    XC-Functional eval.     ....       0.066 sec  (  8.0% of XC)
    XC-Potential eval.      ....       0.105 sec  ( 12.7% of XC)
Diagonalization             ....       0.000 sec  (  0.0%)
Density matrix formation    ....       0.029 sec  (  0.6%)
Total Energy calculation    ....       0.016 sec  (  0.3%)
Population analysis         ....       0.017 sec  (  0.3%)
Orbital Transformation      ....       0.015 sec  (  0.3%)
Orbital Orthonormalization  ....       0.000 sec  (  0.0%)
DIIS solution               ....       0.058 sec  (  1.1%)
SOSCF solution              ....       0.074 sec  (  1.4%)
Finished LeanSCF after   5.1 sec

Maximum memory used throughout the entire LEANSCF-calculation: 8.7 MB


-------------------------------------------------------------------------------
                          DFT DISPERSION CORRECTION                            
                                                                               
                              DFTD3 V3.1  Rev 1                                
                          USING Becke-Johnson damping                          
-------------------------------------------------------------------------------
The B3LYP functional is recognized
Active option DFTDOPT                   ...         4   

molecular C6(AA) [au] = 1922.868289 


            DFT-D V3
 parameters
 s6 scaling factor         :     1.0000 
 a1 scaling factor         :     0.3981 
 s8 scaling factor         :     1.9889 
 a2 scaling factor         :     4.4211 
 ad hoc parameters k1-k3   :    16.0000     1.3333    -4.0000 

 Edisp/kcal,au: -10.146380814453  -0.016169285328 
 E6   /kcal   :  -4.127676266 
 E8   /kcal   :  -6.018704548 
 % E8         :  59.318733037 

-------------------------   ----------------
Dispersion correction           -0.016169285
-------------------------   ----------------


-------------------------   --------------------
FINAL SINGLE POINT ENERGY     -1544.548179854752
-------------------------   --------------------



           ************************************************************
           *        Program running with 6 parallel MPI-processes     *
           *              working on a common directory               *
           ************************************************************
------------------------------------------------------------------------------
                         ORCA SCF GRADIENT CALCULATION
------------------------------------------------------------------------------

Nuc. rep. gradient        (SHARK) ... done (  0.0 sec)
HCore & Overlap gradient  (SHARK) ... done (  0.0 sec)
Split-RIJ-J gradient      (SHARK) ... done (  0.2 sec)
done (  1.9 sec)
XC gradient                       ... done (  0.3 sec)
Dispersion correction             ... done (  0.1 sec)

-------------------
DISPERSION GRADIENT
-------------------

   1   H   :   -0.000328741    0.000004165    0.000231770
   2   O   :   -0.000399846   -0.000066169    0.000483171
   3   O   :    0.000061703   -0.000447221    0.000006056
   4   S   :    0.000256000   -0.000008058   -0.000402598
   5   Cl  :    0.000337114   -0.000119141   -0.000788202
   6   Cl  :    0.000649079    0.000691249    0.000417904
   7   O   :   -0.000355731    0.000092176   -0.000251543
   8   H   :   -0.000219578   -0.000147001    0.000303442

Difference to translation invariance:
           :   -0.0000000000    0.0000000000    0.0000000000

Difference to rotation invariance:
           :    0.0000000000   -0.0000000000    0.0000000000

Norm of the Dispersion gradient    ...    0.0017816129
RMS gradient                       ...    0.0003636702
MAX gradient                       ...    0.0007882024

------------------
CARTESIAN GRADIENT
------------------

   1   H   :    0.000013385    0.000095726    0.000099675
   2   O   :   -0.000012767   -0.000102893   -0.000119339
   3   O   :   -0.000005792   -0.000017133   -0.000126583
   4   S   :    0.000085100   -0.000138016    0.000007147
   5   Cl  :    0.000051763    0.000089146    0.000129459
   6   Cl  :    0.000126596    0.000107085   -0.000042790
   7   O   :   -0.000200628   -0.000126254    0.000000407
   8   H   :   -0.000057657    0.000092339    0.000052024

Difference to translation invariance:
           :   -0.0000000001   -0.0000000001    0.0000000001

Difference to rotation invariance:
           :   -0.0001237242    0.0000169967    0.0000969408

Norm of the Cartesian gradient     ...    0.0004630567
RMS gradient                       ...    0.0000945211
MAX gradient                       ...    0.0002006283

-------
TIMINGS
-------

Total SCF gradient time     ....        2.479 sec

Densities                   ....       0.000 sec  (  0.0%)
One electron gradient       ....       0.022 sec  (  0.9%)
RI-J Coulomb gradient       ....       0.187 sec  (  7.5%)
COSX gradient               ....       1.875 sec  ( 75.6%)
XC gradient                 ....       0.343 sec  ( 13.8%)

Maximum memory used throughout the entire SCFGRAD-calculation: 27.0 MB


           ************************************************************
           *        Program running with 6 parallel MPI-processes     *
           *              working on a common directory               *
           ************************************************************

------------------------------------------------------------------------------
                              ORCA PROPERTY CALCULATIONS
------------------------------------------------------------------------------

GBWName                                 ... orca.gbw
Number of atoms                         ...      8
Number of basis functions               ...    106
Max core memory                         ...   4096 MB

Electric properties:
Dipole moment                           ... YES
Quadrupole moment                       ...  NO
Static polarizability (Dipole/Dipole)   ...  NO
Static polarizability (Dipole/Quad.)    ...  NO
Static polarizability (Quad./Quad.)     ...  NO
Static polarizability (Velocity)        ...  NO
Static hyperpolarizability              ...  NO

Atomic electric properties:
Dipole moment                           ...  NO
Quadrupole moment                       ...  NO
Static polarizability                   ...  NO

Choice of electric origin               ... Center of mass
Position of electric origin             ...     1.472936    -5.204817     0.363432

General magnetic properties:
Magnetizability                         ...  NO

EPR properties:
g-Tensor (aka g-matrix)                 ...  NO
Zero-Field splitting spin-orbit         ...  NO
Zero-field splitting spin-spin          ...  NO
Hyperfine couplings                     ...  NO (   0 nuclei)
Quadrupole couplings                    ...  NO (   0 nuclei)
Contact density                         ...  NO (   0 nuclei)

NMR properties:
Chemical shifts                         ...  NO (   0 nuclei)
Spin-rotation constants                 ...  NO (   0 nuclei)
Spin-spin couplings                     ...  NO (   0 nuclei,    0 pairs)

Choice of magnetic origin               ... GIAO
Position of magnetic origin             ...     0.000000     0.000000     0.000000

Properties with geometric perturbations:
SCF Hessian                             ...  NO
IR spectrum                             ...  NO
VCD spectrum                            ...  NO
X-ray spectroscopy properties:
SCF XES/XAS/RIXS spectra                ...  NO

SCF SOC stabilization energy            ...  NO
Diagonal Born-Oppenheimer correction    ...  NO

-------------
DIPOLE MOMENT
-------------

Method             : SCF
Type of density    : Electron Density
Multiplicity       :   1
Irrep              :   0
Energy             : -1544.5320105694238464 Eh
Basis              : AO
                                X                 Y                 Z
Electronic contribution:      6.416835050       2.242638833      -5.415426897
Nuclear contribution   :     -6.428902444      -2.331974289       5.142270634
                        -----------------------------------------
Total Dipole Moment    :     -0.012067394      -0.089335455      -0.273156263
                        -----------------------------------------
Magnitude (a.u.)       :      0.287646988
Magnitude (Debye)      :      0.731140539



--------------------
Rotational spectrum 
--------------------
 
Rotational constants in cm-1:             0.089192             0.044868             0.036765 
Rotational constants in MHz :          2673.916508          1345.120087          1102.199113 

Dipole components along the rotational axes: 
x,y,z [a.u.] :    -0.235851     0.160009    -0.038890 
x,y,z [Debye]:    -0.599485     0.406710    -0.098852 

 

Dipole moment calculation done in   0.0 sec 

Maximum memory used throughout the entire PROP-calculation: 5.2 MB

--------------------------------
SUGGESTED CITATIONS FOR THIS RUN
--------------------------------

Below you find a list of papers that are relevant to this ORCA run
We neither can nor want to force you to cite these papers, but we appreciate if you do
You receive ORCA, which is the product of decades of hard work by many enthusiastic individuals, for free
The only thing we kindly ask in return is that you cite our papers,
We deeply appreciate it, if you show your appreciation for ORCA by not just citing the generic ORCA reference.

Please note that relegating all ORCA citations to the supporting information does *not* help us.
SI sections are not indexed - citations you put there will not count into any citation statistics
But we need these citations in order to attract the funding resources that allow us to do what we are doing

Therefore, if you are a happy ORCA user, please consider citing a few of the papers listed below in the main body of your paper

In addition to the list printed below, the program has created the file orca.bibtex that contains the list in bibtex format
You can import this file easily into all common literature databanks and citation aid programs


List of essential papers. We consider these as the minimum necessary citations

  1. Neese, F.
     Software update: the ORCA program system, version 6.0
     WIRES Comput. Molec. Sci. 2025 15(1), e70019
     doi.org/10.1002/wcms.7019

List of papers to cite with high priority. The work reported in these papers was absolutely
necessary for this run to complete.
Our perspective: the developers of density functionals and basis sets usually get cited in chemistry papers
Good! But without the algorithms to do something with them, the functionals or basis sets would not do anything.
Hence, in our opinion, the algorithm design and method developments papers are equally worthy of getting cited

  1. Neese, F.
     An improvement of the resolution of the identity approximation for the formation of the Coulomb matrix
     J. Comp. Chem. 2003 24(14), 1740-1747
     doi.org/10.1002/jcc.10318
  2. Neese, F.; Wennmohs, F.; Hansen, A.; Becker, U.
     Efficient, approximate and parallel Hartree-Fock and hybrid DFT calculations. A 'chain-of-spheres' algorithm for the Hartree-Fock exchange
     Chem. Phys. 2009 356(1-3), 98-109
     doi.org/10.1016/j.chemphys.2008.10.036
  3. Grimme, S.; Antony, J.; Ehrlich, S.; Krieg, H.
     A consistent and accurate ab initio parametrization of density functional dispersion correction (DFT-D) for the 94 elements H-Pu
     J. Chem. Phys. 2010 132 , 154104
     doi.org/10.1063/1.3382344
  4. Grimme, S.; Ehrlich, S.; Goerigk, L.
     Effect of the damping function in dispersion corrected density functional theory
     J. Comput. Chem. 2011 32(7), 1456-1465
     doi.org/10.1002/jcc.21759
  5. Helmich-Paris, B.; de Souza, B.; Neese, F.; Izsák, R.
     An improved chain of spheres for exchange algorithm
     J. Chem. Phys. 2021 155(10), 104109
     doi.org/10.1063/5.0058766
  6. Neese, F.
     The SHARK Integral Generation and Digestion System
     J. Comp. Chem. 2022 44(3), 381
     doi.org/10.1002/jcc.26942

List of suggested additional citations. These are papers that are important in the 'surrounding' of 
of this run, or papers that preceded the highly important papers. If you like your results we are grateful for a citation.

  1. Izsak, R.; Neese, F.
     An overlap fitted chain of spheres exchange method
     J. Chem. Phys. 2011 135 , 144105
     doi.org/10.1063/1.3646921
  2. Izsak, R.; Hansen, A.; Neese, F.
     The resolution of identity and chain of spheres approximations for the LPNO-CCSD singles Fock term
     Molec. Phys. 2012 110 , 2413-2417
     doi.org/10.1080/00268976.2012.687466
  3. Neese, F.
     The ORCA program system
     WIRES Comput. Molec. Sci. 2012 2(1), 73-78
     doi.org/10.1002/wcms.81
  4. Izsak, R.; Neese, F.; Klopper, W.
     Robust fitting techniques in the chain of spheres approximation to the Fock exchange: The role of the complementary space
     J. Chem. Phys. 2013 139 , 
     doi.org/10.1063/1.4819264
  5. Neese, F.
     Software update: the ORCA program system, version 4.0
     WIRES Comput. Molec. Sci. 2018 8(1), 1-6
     doi.org/10.1002/wcms.1327
  6. Neese, F.; Wennmohs, F.; Becker, U.; Riplinger, C.
     The ORCA quantum chemistry program package
     J. Chem. Phys. 2020 152(22), 224108
     doi.org/10.1063/5.0004608
  7. Neese, F.
     Software update: The ORCA program system—Version 5.0
     WIRES Comput. Molec. Sci. 2022 12(1), e1606
     doi.org/10.1002/wcms.1606

List of optional additional citations

  1. Neese, F.
     Approximate second-order SCF convergence for spin unrestricted wavefunctions
     Chem. Phys. Lett. 2000 325(1-3), 93-98
     doi.org/10.1016/s0009-2614(00)00662-x

Timings for individual modules:

Sum of individual times          ...       10.633 sec (=   0.177 min)
Startup calculation              ...        1.204 sec (=   0.020 min)  11.3 %
SCF iterations                   ...        6.038 sec (=   0.101 min)  56.8 %
Property calculations            ...        0.447 sec (=   0.007 min)   4.2 %
SCF Gradient evaluation          ...        2.944 sec (=   0.049 min)  27.7 %
                             ****ORCA TERMINATED NORMALLY****
TOTAL RUN TIME: 0 days 0 hours 0 minutes 11 seconds 200 msec
