
                                 *****************
                                 * O   R   C   A *
                                 *****************

                                            #,                                       
                                            ###                                      
                                            ####                                     
                                            #####                                    
                                            ######                                   
                                           ########,                                 
                                     ,,################,,,,,                         
                               ,,#################################,,                 
                          ,,##########################################,,             
                       ,#########################################, ''#####,          
                    ,#############################################,,   '####,        
                  ,##################################################,,,,####,       
                ,###########''''           ''''###############################       
              ,#####''   ,,,,##########,,,,          '''####'''          '####       
            ,##' ,,,,###########################,,,                        '##       
           ' ,,###''''                  '''############,,,                           
         ,,##''                                '''############,,,,        ,,,,,,###''
      ,#''                                            '''#######################'''  
     '                                                          ''''####''''         
             ,#######,   #######,   ,#######,      ##                                
            ,#'     '#,  ##    ##  ,#'     '#,    #''#        ,####,    ,#,          
            ##       ##  ##   ,#'  ##            #'  '#       #'       ,# #          
            ##       ##  #######   ##           ,######,      #####,      #          
            '#,     ,#'  ##    ##  '#,     ,#' ,#      #,     #,   #      #          
             '#######'   ##     ##  '#######'  #'      '#     '####' #    #          



                #########################################################
                #                        -***-                          #
                #          Department of theory and spectroscopy        #
                #                                                       #
                #                      Frank Neese                      #
                #                                                       #
                #     Directorship, Architecture, Infrastructure        #
                #                    SHARK, DRIVERS                     #
                #        Core code/Algorithms in most modules           #
                #                                                       #
                #        Max Planck Institute fuer Kohlenforschung      #
                #                Kaiser Wilhelm Platz 1                 #
                #                 D-45470 Muelheim/Ruhr                 #
                #                      Germany                          #
                #                                                       #
                #                  All rights reserved                  #
                #                        -***-                          #
                #########################################################


                         Program Version 6.1.0  -  RELEASE   -
                                (GIT: $679e74b$)
                          ($2025-06-10 18:02:51 +0200$)


 With contributions from (in alphabetic order):
[Max-Planck-Institut fuer Kohlenforschung]                               
  Daniel Aravena         : Magnetic Suceptibility                        
  Michael Atanasov       : Ab Initio Ligand Field Theory (pilot matlab implementation)
  Alexander A. Auer      : GIAO ZORA, VPT2 properties, NMR spectrum      
  Ute Becker             : All parallelization in ORCA, NUMFREQ, NUMCALC 
  Giovanni Bistoni       : ED, misc. LED, open-shell LED, HFLD           
  Dmytro Bykov           : pre 5.0 version of the SCF Hessian            
  Marcos Casanova-Páez   : Triplet and SCS-CIS(D). UHF-(DLPNO)-IP/EA/STEOM-CCSD. UHF-CVS-IP/STEOM-CCSD   
  Vijay G. Chilkuri      : MRCI spin determinant printing, contributions to CSF-ICE 
  Pauline Colinet        : FMM embedding                                 
  Dipayan Datta          : RHF DLPNO-CCSD density                        
  Achintya Kumar Dutta   : EOM-CC, STEOM-CC                              
  Nicolas Foglia         : Exact transition moments, OPA infrastructure, MCD improvements    
  Dmitry Ganyushin       : Spin-Orbit,Spin-Spin,Magnetic field MRCI      
  Miquel Garcia-Rates    : C-PCM and meta-GGA Hessian, CCSD/C-PCM, Gaussian charge scheme 
  Tiago L. C. Gouveia    : GS-ROHF, GS-ROCIS                             
  Yang Guo               : DLPNO-NEVPT2, F12-NEVPT2, CIM, IAO-localization        
  Andreas Hansen         : Spin unrestricted coupled pair/coupled cluster methods 
  Ingolf Harden          : AUTO-CI MPn and infrastructure                
  Benjamin Helmich-Paris : MC-RPA, TRAH-(SCF,CASSCF), AVAS, COSX integrals, SCF dyn. polar., MC-PDFT, srDFT 
  Lee Huntington         : MR-EOM, pCC                                   
  Robert Izsak           : Overlap fitted RIJCOSX, COSX-SCS-MP3, EOM     
  Riya Kayal             : Wick's Theorem for AUTO-CI, AUTO-CI UHF-CCSDT 
  Emily Kempfer          : AUTO-CI RHF CISDT and CCSDT, approximate NEVPT4
  Christian Kollmar      : KDIIS, OOCD, Brueckner-CCSD(T), CCSD density, CASPT2, CASPT2-K, improved NEVPT2 
  Axel Koslowski         : Symmetry handling                             
  Simone Kossmann        : meta-GGA functionals, TD-DFT gradient, OOMP2, (MP2 Hessian; deprecated post 5.0) 
  Lucas Lang             : DCDCAS, Hyperfine gauge corrections, ICE-SOC+SSC
  Marvin Lechner         : AUTO-CI (C++ implementation), FIC-MRCC        
  Spencer Leger          : CASSCF response                               
  Dagmar Lenk            : GEPOL surface, SMD, ORCA-2-JSON               
  Dimitrios Liakos       : Extrapolation schemes; Compound Job, Property file
  Dimitrios Manganas     : Further ROCIS development; embedding schemes. LFT, Crystal Embedding 
  Dimitrios Pantazis     : SARC Basis sets                               
  Anastasios Papadopoulos: AUTO-CI, single reference methods and gradients 
  Taras Petrenko         : pre 6.0 DFT Hessian and TD-DFT gradient,  ECA, NRVS 
  Petra Pikulova         : Analytic Raman intensities                    
  Peter Pinski           : DLPNO-MP2, DLPNO-MP2 Gradient                 
  Shashank Vittal Rao    : ES-AILFT, MagRelax                            
  Christoph Reimann      : Effective Core Potentials                     
  Marius Retegan         : Local ZFS, SOC                                
  Christoph Riplinger    : Optimizer, TS searches, QM/MM, DLPNO-CCSD(T), (RO)-DLPNO pert. Triples 
  Michael Roemelt        : Original ROCIS implementation, recursive CI coupling coefficients
  Masaaki Saitow         : Open-shell DLPNO-CCSD energy and density      
  Barbara Sandhoefer     : DKH picture change effects                    
  Yorick L. A. Schmerwitz: GMF and freeze-and-release deltaSCF, NEB S-IDPP initial path                    
  Kantharuban Sivalingam : CASSCF convergence/infrastructure, NEVPT2, NEVPT3, NEVPT4(SD), FIC-MRCI and CEPA variants
  Bernardo de Souza      : ESD, SOC TD-DFT                               
  Georgi L. Stoychev     : AutoAux, RI-MP2 NMR, DLPNO-MP2 response, X2C  
  Van Anh Tran           : RI-MP2 g-tensors                              
  Willem Van den Heuvel  : Paramagnetic NMR                              
  Zikuan Wang            : NOTCH, Electric field optimization            
  Frank Wennmohs         : Technical directorship and infrastructure     
  Hang Xu                : AUTO-CI-Response properties                   
                                                                         
[FACCTs GmbH]                                                            
  Markus Bursch, Nicolas Foglia, Miquel Garcia-Rates, Ingolf Harden, Hagen Neugebauer, Anastasios Papadopoulos, 
  Christoph Riplinger, Bernardo de Souza, Georgi L. Stoychev                                                    
                                                                 
  APM, various basis sets, CI-OPT, improved COSX, DLPNO-Multilevel,           
  DOCKER, DRACO, updates on ESD, Fragmentator, GOAT, IRC, LR-CPCM, L-BFGS, MBIS, meta-GGA TD-DFT gradient, ML-optimized integration grids, 
  MM, NACMEs, nearIR, NEB, NEB-TS, NL-DFT gradient (VV10), 2- and 3-layer-ONIOM, interface openCOSMO-RS, QMMM,   
  Crystal-QMMM, RESP, rigid body optimization, SF, symmetry and pop. for TD-DFT, various functionals, SOLVATOR                                   
                                                                         
[Other institutions]                                                     
  V. Asgeirsson          : NEB                                           
  Christoph Bannwarth    : sTDA-DFT, sTD-DFT, PBEh-3c, B97-3c, D3        
  Giovanni Bistoni       : ETS/NOCV, ADLD/ADEX, COVALED                  
  Martin Brehm           : Molecular dynamics                            
  Ronald Cardenas        : ETS/NOCV                                      
  Martina Colucci        : COVALED                                       
  Sebastian Ehlert       : rSCAN, r2SCAN, r2SCAN-3c, D4, dhf basis sets  
  Marvin Friede          : D4 for Fr, Ra, Ac-Lr                          
  Lars Goerigk           : TD-DFT with DH, B97 family of functionals     
  Stefan Grimme          : VdW corrections, initial TS optimization, DFT functionals, gCP, sTDA/sTD-DF 
  Waldemar Hujo          : DFT-NL                                        
  H. Jonsson             : NEB                                           
  Holger Kruse           : gCP                                           
  Marcel Mueller         : wB97X-3c, vDZP basis set                      
  Hagen Neugebauer       : wr2SCAN, Native XTB                           
  Gianluca Regni         : ADLD/ADEX                                     
  Tobias Risthaus        : pre 6.0 range-separated hybrid DFT and stability analysis
  Lukas Wittmann         : regularized MP2, r2SCAN double-hybrids, wr2SCAN        
                                                                         
We gratefully acknowledge several colleagues who have allowed us to      
interface, adapt or use parts of their codes:                            
  Ed Valeev, F. Pavosevic, A. Kumar             : LibInt (2-el integral package), F12 methods 
  Garnet Chan, S. Sharma, J. Yang, R. Olivares  : DMRG                   
  Ulf Ekstrom                                   : XCFun DFT Library      
  Mihaly Kallay                                 : mrcc  (arbitrary order and MRCC methods)
  Frank Weinhold                                : gennbo (NPA and NBO analysis)           
  Simon Mueller                                 : openCOSMO-RS                            
  Christopher J. Cramer and Donald G. Truhlar   : smd solvation model                     
  S Lehtola, MJT Oliveira, MAL Marques          : LibXC Library                           
  Liviu Ungur et al                             : ANISO software                          


 Your calculation uses the libint2 library for the computation of 2-el integrals
 For citations please refer to: http://libint.valeyev.net

 Your ORCA version has been built with support for libXC version: 7.0.0
 For citations please refer to: https://libxc.gitlab.io

 This ORCA versions uses:
   CBLAS   interface :  Fast vector & matrix operations
   LAPACKE interface :  Fast linear algebra routines
   SCALAPACK package :  Parallel linear algebra routines
   Shared memory     :  Shared parallel matrices
   BLAS/LAPACK       :  OpenBLAS 0.3.29  USE64BITINT DYNAMIC_ARCH NO_AFFINITY Zen SINGLE_THREADED
        Core in use  :  Zen
   Copyright (c) 2011-2014, The OpenBLAS Project


  ***********************************
  * Starting time: Wed Sep 10 13:35:28 2025
  * Host name:     wyk-Server
  * Process ID:    2291193
  * Working dir.:  /home/wyk/Documents/code/openQDC/MGMR/singlepointcalc/62/react
  ***********************************

Your calculation utilizes the atom-pairwise dispersion correction
with the Becke-Johnson damping scheme (D3BJ)


Warning: RI is on but no J-basis has been assigned. Assigning Def2/J (nothing to worry about!)
================================================================================

----- Orbital basis set information -----
Your calculation utilizes the basis: def2-SVP
   F. Weigend and R. Ahlrichs, Phys. Chem. Chem. Phys. 7, 3297 (2005).

----- AuxJ basis set information -----
Your calculation utilizes the auxiliary basis: def2/J
   H-Rn: F. Weigend, Phys. Chem. Chem. Phys. 8, 1057 (2006).
   Fr-Lr: K. Eichkorn, F. Weigend, O. Treutler, R. Ahlrichs; Theor. Chem. Acc. 97, 119 (1997).

================================================================================
                                        WARNINGS
                       Please study these warnings very carefully!
================================================================================


================================================================================
                                       INPUT FILE
================================================================================
NAME = orca.inp
|  1> ! B3LYP def2-SVP d3 EnGrad 
|  2> %pal nprocs 6 end 
|  3> *xyz 0 1 
|  4> C   0.00224130092588 -0.17418931461008 1.16137955341831
|  5> H   0.01053740582769 -0.50065368678363 0.11558296186305
|  6> H   0.97210569274664 -0.07729322938096 1.65773297096365
|  7> C   -1.14044871051647 0.09213211841423 1.80005796982814
|  8> C   -2.51338135328065 -0.01083179200358 1.20540497896322
|  9> H   -1.09405455204508 0.41615722734127 2.8483863119424
| 10> H   -3.14068060454944 -0.72210498174872 1.77152123139776
| 11> H   -3.03616011579616 0.96145171638721 1.24088772075545
| 12> H   -2.4789440633124 -0.34330205761573 0.15607230086803
| 13> *
| 14> 
| 15>                          ****END OF INPUT****
================================================================================

                     *******************************
                     * Energy+Gradient Calculation *
                     *******************************

---------------------------------
CARTESIAN COORDINATES (ANGSTROEM)
---------------------------------
  C      0.002241   -0.174189    1.161380
  H      0.010537   -0.500654    0.115583
  H      0.972106   -0.077293    1.657733
  C     -1.140449    0.092132    1.800058
  C     -2.513381   -0.010832    1.205405
  H     -1.094055    0.416157    2.848386
  H     -3.140681   -0.722105    1.771521
  H     -3.036160    0.961452    1.240888
  H     -2.478944   -0.343302    0.156072

----------------------------
CARTESIAN COORDINATES (A.U.)
----------------------------
  NO LB      ZA    FRAG     MASS         X           Y           Z
   0 C     6.0000    0    12.011    0.004235   -0.329170    2.194689
   1 H     1.0000    0     1.008    0.019913   -0.946098    0.218420
   2 H     1.0000    0     1.008    1.837014   -0.146063    3.132661
   3 C     6.0000    0    12.011   -2.155136    0.174104    3.401617
   4 C     6.0000    0    12.011   -4.749602   -0.020469    2.277885
   5 H     1.0000    0     1.008   -2.067463    0.786423    5.382670
   6 H     1.0000    0     1.008   -5.935026   -1.364581    3.347690
   7 H     1.0000    0     1.008   -5.737511    1.816880    2.344938
   8 H     1.0000    0     1.008   -4.684525   -0.648747    0.294934

--------------------------------
INTERNAL COORDINATES (ANGSTROEM)
--------------------------------
 C      0   0   0     0.000000000000     0.00000000     0.00000000
 H      1   0   0     1.095599526544     0.00000000     0.00000000
 H      1   2   0     1.093797286961   116.92629271     0.00000000
 C      1   2   3     1.335880865768   121.48292830   180.04165181
 C      4   1   2     1.499719236377   125.43734622   359.92864491
 H      4   1   2     1.098242688132   118.62341318   179.99943212
 H      5   4   1     1.104491517561   111.15650940   121.16527233
 H      5   4   1     1.104487157096   111.10829989   239.39938786
 H      5   4   1     1.101281741325   111.70980015     0.24415328

---------------------------
INTERNAL COORDINATES (A.U.)
---------------------------
 C      0   0   0     0.000000000000     0.00000000     0.00000000
 H      1   0   0     2.070383057622     0.00000000     0.00000000
 H      1   2   0     2.066977318383   116.92629271     0.00000000
 C      1   2   3     2.524448983848   121.48292830   180.04165181
 C      4   1   2     2.834058634527   125.43734622   359.92864491
 H      4   1   2     2.075377909151   118.62341318   179.99943212
 H      5   4   1     2.087186485428   111.15650940   121.16527233
 H      5   4   1     2.087178245346   111.10829989   239.39938786
 H      5   4   1     2.081120887391   111.70980015     0.24415328

---------------------
BASIS SET INFORMATION
---------------------
There are 2 groups of distinct atoms

 Group   1 Type C   : 7s4p1d contracted to 3s2p1d pattern {511/31/1}
 Group   2 Type H   : 4s1p contracted to 2s1p pattern {31/1}

Atom   0C    basis set group =>   1
Atom   1H    basis set group =>   2
Atom   2H    basis set group =>   2
Atom   3C    basis set group =>   1
Atom   4C    basis set group =>   1
Atom   5H    basis set group =>   2
Atom   6H    basis set group =>   2
Atom   7H    basis set group =>   2
Atom   8H    basis set group =>   2
---------------------------------
AUXILIARY/J BASIS SET INFORMATION
---------------------------------
There are 2 groups of distinct atoms

 Group   1 Type C   : 12s5p4d2f1g contracted to 6s4p3d1f1g pattern {711111/2111/211/2/1}
 Group   2 Type H   : 5s2p1d contracted to 3s1p1d pattern {311/2/1}

Atom   0C    basis set group =>   1
Atom   1H    basis set group =>   2
Atom   2H    basis set group =>   2
Atom   3C    basis set group =>   1
Atom   4C    basis set group =>   1
Atom   5H    basis set group =>   2
Atom   6H    basis set group =>   2
Atom   7H    basis set group =>   2
Atom   8H    basis set group =>   2


           ************************************************************
           *        Program running with 6 parallel MPI-processes     *
           *              working on a common directory               *
           ************************************************************
------------------------------------------------------------------------------
                             ORCA STARTUP CALCULATIONS
                           -- RI-GTO INTEGRALS CHOSEN --
------------------------------------------------------------------------------
------------------------------------------------------------------------------
                   ___                                                        
                  /   \      - P O W E R E D   B Y -                         
                 /     \                                                     
                 |  |  |   _    _      __       _____    __    __             
                 |  |  |  | |  | |    /  \     |  _  \  |  |  /  |          
                  \  \/   | |  | |   /    \    | | | |  |  | /  /          
                 / \  \   | |__| |  /  /\  \   | |_| |  |  |/  /          
                |  |  |   |  __  | /  /__\  \  |    /   |      \           
                |  |  |   | |  | | |   __   |  |    \   |  |\   \          
                \     /   | |  | | |  |  |  |  | |\  \  |  | \   \       
                 \___/    |_|  |_| |__|  |__|  |_| \__\ |__|  \__/        
                                                                              
                      - O R C A' S   B I G   F R I E N D -                    
                                      &                                       
                       - I N T E G R A L  F E E D E R -                       
                                                                              
 v1 FN, 2020, v2 2021, v3 2022-2024                                           
------------------------------------------------------------------------------


----------------------
SHARK INTEGRAL PACKAGE
----------------------

Number of atoms                             ...      9
Number of basis functions                   ...     72
Number of shells                            ...     36
Maximum angular momentum                    ...      2
Integral batch strategy                     ... SHARK/LIBINT Hybrid
RI-J (if used) integral strategy            ... SPLIT-RIJ (Revised 2003 algorithm where possible)
Printlevel                                  ...      1
Contraction scheme used                     ... SEGMENTED contraction
Prescreening option                         ... SCHWARTZ
   Thresh                                   ... 2.500e-11
   Tcut                                     ... 2.500e-12
   Tpresel                                  ... 2.500e-12 
Coulomb Range Separation                    ... NOT USED
Exchange Range Separation                   ... NOT USED
Multipole approximations                    ... NOT USED
Finite Nucleus Model                        ... NOT USED
CABS basis                                  ... NOT available
Auxiliary Coulomb fitting basis             ... AVAILABLE
   # of basis functions in Aux-J            ...    213
   # of shells in Aux-J                     ...     75
   Maximum angular momentum in Aux-J        ...      4
Auxiliary J/K fitting basis                 ... NOT available
Auxiliary Correlation fitting basis         ... NOT available
Auxiliary 'external' fitting basis          ... NOT available

Checking pre-screening integrals            ... done (  0.0 sec) Dimension = 36
   => SHARK Basis and OBASIS are compatible. Storing Pre-screening
Shell pair information
Shell pair cut-off parameter TPreSel        ...   2.5e-12
Total number of shell pairs                 ...       666
Shell pairs after pre-screening             ...       664
Total number of primitive shell pairs       ...      2268
Primitive shell pairs kept                  ...      1936
          la=0 lb=0:    230 shell pairs
          la=1 lb=0:    251 shell pairs
          la=1 lb=1:     78 shell pairs
          la=2 lb=0:     63 shell pairs
          la=2 lb=1:     36 shell pairs
          la=2 lb=2:      6 shell pairs

Checking whether 4 symmetric matrices of dimension 72 fit in memory
:Max Core in MB      =   4096.00
 MB in use           =      4.09
 MB left             =   4091.91
 MB needed           =      0.08
 Data fit in memory  = YES
Calculating RI/J V-Matrix + Cholesky decomp.... done (  0.0 sec)
Calculating Nuclear repulsion               ... done (  0.0 sec) ENN=     70.416803214810 Eh

Diagonalization of the overlap matrix:
Smallest eigenvalue                        ... 2.664e-03
Time for diagonalization                   ...    0.001 sec
Threshold for overlap eigenvalues          ... 1.000e-07
Number of eigenvalues below threshold      ... 0
Time for construction of square roots      ...    0.000 sec
Total time needed                          ...    0.002 sec

-------------------
DFT GRID GENERATION
-------------------

General Integration Accuracy     IntAcc      ... 4.388
Radial Grid Type                 RadialGrid  ... OptM3 with GC (2021)
Angular Grid (max. ang.)         AngularGrid ... 4 (Lebedev-302)
Angular grid pruning method      GridPruning ... 4 (adaptive)
Weight generation scheme         WeightScheme... mBecke (2022)
Basis function cutoff            BFCut       ... 1.0000e-11
Integration weight cutoff        WCut        ... 1.0000e-14
Partially contracted basis set               ... off
Rotationally invariant grid construction     ... off
Angular grids for H and He will be reduced by one unit

Total number of grid points                  ...    37737
Total number of batches                      ...      594
Average number of points per batch           ...       63
Average number of grid points per atom       ...     4193

--------------------
COSX GRID GENERATION
--------------------

GRIDX 1
-------
General Integration Accuracy     IntAcc      ... 3.816
Radial Grid Type                 RadialGrid  ... OptM3 with GC (2021)
Angular Grid (max. ang.)         AngularGrid ... 1 (Lebedev-50)
Angular grid pruning method      GridPruning ... 4 (adaptive)
Weight generation scheme         WeightScheme... mBecke (2022)
Basis function cutoff            BFCut       ... 1.0000e-11
Integration weight cutoff        WCut        ... 1.0000e-14
Partially contracted basis set               ... on
Rotationally invariant grid construction     ... off
Angular grids for H and He will be reduced by one unit

Total number of grid points                  ...     4893
Total number of batches                      ...       44
Average number of points per batch           ...      111
Average number of grid points per atom       ...      544
UseSFitting                                  ... on

GRIDX 2
-------
General Integration Accuracy     IntAcc      ... 4.020
Radial Grid Type                 RadialGrid  ... OptM3 with GC (2021)
Angular Grid (max. ang.)         AngularGrid ... 2 (Lebedev-110)
Angular grid pruning method      GridPruning ... 4 (adaptive)
Weight generation scheme         WeightScheme... mBecke (2022)
Basis function cutoff            BFCut       ... 1.0000e-11
Integration weight cutoff        WCut        ... 1.0000e-14
Partially contracted basis set               ... on
Rotationally invariant grid construction     ... off
Angular grids for H and He will be reduced by one unit

Total number of grid points                  ...    10238
Total number of batches                      ...       85
Average number of points per batch           ...      120
Average number of grid points per atom       ...     1138
UseSFitting                                  ... on

GRIDX 3
-------
General Integration Accuracy     IntAcc      ... 4.338
Radial Grid Type                 RadialGrid  ... OptM3 with GC (2021)
Angular Grid (max. ang.)         AngularGrid ... 3 (Lebedev-194)
Angular grid pruning method      GridPruning ... 4 (adaptive)
Weight generation scheme         WeightScheme... mBecke (2022)
Basis function cutoff            BFCut       ... 1.0000e-11
Integration weight cutoff        WCut        ... 1.0000e-14
Partially contracted basis set               ... on
Rotationally invariant grid construction     ... off
Angular grids for H and He will be reduced by one unit

Total number of grid points                  ...    22485
Total number of batches                      ...      181
Average number of points per batch           ...      124
Average number of grid points per atom       ...     2498
UseSFitting                                  ... on
Grids setup in   0.4 sec
Initializing property integral containers    ... done (  0.0 sec)

SHARK setup successfully completed in   0.5 seconds

Maximum memory used throughout the entire STARTUP-calculation: 11.1 MB


           ************************************************************
           *        Program running with 6 parallel MPI-processes     *
           *              working on a common directory               *
           ************************************************************
-------------------------------------------------------------------------------
                                 ORCA GUESS
                   Start orbitals & Density for SCF / CASSCF
-------------------------------------------------------------------------------

------------
SCF SETTINGS
------------
Hamiltonian:
 Density Functional     Method          .... DFT(GTOs)
 Exchange Functional    Exchange        .... B88
   X-Alpha parameter    XAlpha          ....  0.666667
   Becke's b parameter  XBeta           ....  0.004200
 Correlation Functional Correlation     .... LYP
 LDA part of GGA corr.  LDAOpt          .... VWN-5
 Gradients option       PostSCFGGA      .... off
 Hybrid DFT is turned on
   Fraction HF Exchange ScalHFX         ....  0.200000
   Scaling of DF-GGA-X  ScalDFX         ....  0.720000
   Scaling of DF-GGA-C  ScalDFC         ....  0.810000
   Scaling of DF-LDA-C  ScalLDAC        ....  1.000000
   Perturbative correction              ....  0.000000
   NL short-range parameter             ....  4.800000
 RI-approximation to the Coulomb term is turned on
   Number of AuxJ basis functions       .... 213
   RIJ-COSX (HFX calculated with COS-X)).... on


General Settings:
 Integral files         IntName         .... orca
 Hartree-Fock type      HFTyp           .... RHF
 Total Charge           Charge          ....    0
 Multiplicity           Mult            ....    1
 Number of Electrons    NEL             ....   24
 Basis Dimension        Dim             ....   72
 Nuclear Repulsion      ENuc            ....     70.4168032148 Eh

Convergence Acceleration:
 AO-DIIS                CNVDIIS         .... on
   Start iteration      DIISMaxIt       ....    12
   Startup error        DIISStart       ....  0.200000
   # of expansion vecs  DIISMaxEq       ....     5
   Bias factor          DIISBfac        ....   1.050
   Max. coefficient     DIISMaxC        ....  10.000
 MO-DIIS                CNVKDIIS        .... off
 Trust-Rad. Augm. Hess. CNVTRAH         .... auto
   Auto Start mean grad. ratio tolernc. ....  1.125000
   Auto Start start iteration           ....    50
   Auto Start num. interpolation iter.  ....    10
   Max. Number of Micro iterations      ....    24
   Max. Number of Macro iterations      .... Maxiter - #DIIS iter
   Number of Davidson start vectors     ....     2
   Converg. threshold    (grad. norm)   ....   1.000e-05
   Grad. Scal. Fac. for Micro threshold ....   0.100
   Minimum threshold for Micro iter.    ....   1.000e-02
   NR start threshold (gradient norm)   ....   1.000e-04
   Initial trust radius                 ....   0.400
   Minimum AH scaling param. (alpha)    ....   1.000
   Maximum AH scaling param. (alpha)    .... 1000.000
   Quad. conv. algorithm                .... NR
   White noise on init. David. guess    .... on
   Maximum white noise                  ....   0.010
   Pseudo random numbers                .... off
   Inactive MOs                         .... canonical
   Orbital update algorithm             .... Taylor
   Preconditioner                       .... Diag
   Full preconditioner red. dimension   ....   250
 SOSCF                 CNVSOSCF           .... on
   Start iteration     SOSCFMaxIt         ....   150
   Startup grad/error  SOSCFStart         ....  0.003300
   Hessian update      SOSCFHessUp        .... L-BFGS
   Autom. constraints  SOSCFAutoConstrain .... off
 Level Shifting         CNVShift        .... on
   Level shift para.    LevelShift      ....    0.2500
   Turn off err/grad.   ShiftErr        ....    0.0010
 Zerner damping         CNVZerner       .... off
 Static damping         CNVDamp         .... on
   Fraction old density DampFac         ....    0.7000
   Max. Damping (<1)    DampMax         ....    0.9800
   Min. Damping (>=0)   DampMin         ....    0.0000
   Turn off err/grad.   DampErr         ....    0.1000

SCF Procedure:
 Maximum # iterations   MaxIter         ....   125
 SCF integral mode      SCFMode         .... Direct
   Integral package                     .... SHARK and LIBINT hybrid scheme
 Reset frequency        DirectResetFreq ....    20
 Integral Threshold     Thresh          ....  2.500e-11 Eh
 Primitive CutOff       TCut            ....  2.500e-12 Eh

Convergence Tolerance:
 Convergence Check Mode ConvCheckMode   .... Total+1el-Energy
 Convergence forced     ConvForced      .... 0
 Energy Change          TolE            ....  1.000e-08 Eh
 1-El. energy change                    ....  1.000e-05 Eh
 Orbital Gradient       TolG            ....  1.000e-05
 Orbital Rotation angle TolX            ....  1.000e-05
 DIIS Error             TolErr          ....  5.000e-07

------------------------------
INITIAL GUESS: MODEL POTENTIAL
------------------------------
Loading Hartree-Fock densities                     ... done
Calculating cut-offs                               ... done
Initializing the effective Hamiltonian             ... done
Setting up the integral package (SHARK)            ... done
Starting the Coulomb interaction                   ... done (   0.0 sec)
Making the grid                                    ... done (   0.1 sec)
Mapping shells                                     ... done
Starting the XC term evaluation                    ... done (   0.0 sec)
  promolecular density results
     # of electrons  =     23.996028498
     EX              =    -17.155155729
     EC              =     -0.747191174
     EX+EC           =    -17.902346903
Transforming the Hamiltonian                       ... done (   0.0 sec)
Diagonalizing the Hamiltonian                      ... done (   0.0 sec)
Back transforming the eigenvectors                 ... done (   0.0 sec)
Now organizing SCF variables                       ... done
                      ------------------
                      INITIAL GUESS DONE (   0.1 sec)
                      ------------------
             **** ENERGY FILE WAS UPDATED (orca.en.tmp) ****
Finished Guess after   0.2 sec
Maximum memory used throughout the entire GUESS-calculation: 6.3 MB


           ************************************************************
           *        Program running with 6 parallel MPI-processes     *
           *              working on a common directory               *
           ************************************************************

-------------------------------------------------------------------------------------------
                                      ORCA LEAN-SCF
                              memory conserving SCF solver
-------------------------------------------------------------------------------------------

----------------------------------------D-I-I-S--------------------------------------------
Iteration    Energy (Eh)           Delta-E    RMSDP     MaxDP     DIISErr   Damp  Time(sec)
-------------------------------------------------------------------------------------------
               ***  Starting incremental Fock matrix formation  ***
    1    -117.6253453465890146     0.00e+00  1.15e-02  7.45e-02  1.67e-01  0.700   0.2
    2    -117.6759244021015292    -5.06e-02  8.46e-03  4.63e-02  8.89e-02  0.700   0.2
                               ***Turning on AO-DIIS***
    3    -117.6975533260868900    -2.16e-02  3.43e-03  1.34e-02  3.52e-02  0.700   0.2
    4    -117.7097493497414717    -1.22e-02  5.77e-03  2.11e-02  1.82e-02  0.000   0.2
    5    -117.7357320630586486    -2.60e-02  1.01e-03  3.58e-03  5.73e-03  0.000   0.2
                              *** Initializing SOSCF ***
---------------------------------------S-O-S-C-F--------------------------------------
Iteration    Energy (Eh)           Delta-E    RMSDP     MaxDP     MaxGrad    Time(sec)
--------------------------------------------------------------------------------------
    6    -117.7358879503303939    -1.56e-04  3.93e-04  1.41e-03  1.71e-03     0.2
               *** Restarting incremental Fock matrix formation ***
    7    -117.7358546971496622     3.33e-05  2.76e-04  1.38e-03  3.27e-04     0.2
    8    -117.7358538891974291     8.08e-07  1.07e-04  9.07e-04  5.73e-04     0.2
    9    -117.7358560416305551    -2.15e-06  5.49e-05  2.58e-04  7.74e-05     0.2
   10    -117.7358560193639931     2.23e-08  2.89e-05  1.30e-04  7.33e-05     0.2
   11    -117.7358561278125109    -1.08e-07  2.24e-06  9.02e-06  3.01e-06     0.2
   12    -117.7358561282180602    -4.06e-10  8.25e-07  2.77e-06  1.66e-06     0.2
                 **** Energy Check signals convergence ****

               *****************************************************
               *                     SUCCESS                       *
               *           SCF CONVERGED AFTER  12 CYCLES          *
               *****************************************************

Recomputing exchange energy using gridx3       ... done (    0.249 sec)
Old exchange energy                            :     -3.518876426 Eh
New exchange energy                            :     -3.518884689 Eh
Exchange energy change after final integration :     -0.000008263 Eh
Total energy after final integration           :   -117.735864391 Eh
             **** ENERGY FILE WAS UPDATED (orca.en.tmp) ****

----------------
TOTAL SCF ENERGY
----------------

Total Energy       :       -117.73586439075525 Eh           -3203.75575 eV

Components:
Nuclear Repulsion  :         70.41680321481023 Eh            1916.13863 eV
Electronic Energy  :       -188.15265934283843 Eh           -5119.89415 eV
One Electron Energy:       -296.08688593163566 Eh           -8056.93377 eV
Two Electron Energy:        107.93422658879723 Eh            2937.03962 eV

Virial components:
Potential Energy   :       -233.99013220100304 Eh           -6367.19520 eV
Kinetic Energy     :        116.25426781024778 Eh            3163.43945 eV
Virial Ratio       :          2.01274444894295

DFT components:
N(Alpha)           :       12.000017787413 electrons
N(Beta)            :       12.000017787413 electrons
N(Total)           :       24.000035574827 electrons
E(X)               :      -13.941172748071 Eh       
E(C)               :       -0.894056838006 Eh       
E(XC)              :      -14.835229586078 Eh       

---------------
SCF CONVERGENCE
---------------

  Last Energy change         ...    4.0555e-10  Tolerance :   1.0000e-08
  Last MAX-Density change    ...    2.7674e-06  Tolerance :   1.0000e-07
  Last RMS-Density change    ...    8.2545e-07  Tolerance :   5.0000e-09
  Last DIIS Error            ...    1.7106e-03  Tolerance :   5.0000e-07
  Last Orbital Gradient      ...    1.6633e-06  Tolerance :   1.0000e-05
  Last Orbital Rotation      ...    1.3051e-06  Tolerance :   1.0000e-05


----------------
ORBITAL ENERGIES
----------------

  NO   OCC          E(Eh)            E(eV) 
   0   2.0000     -10.186978      -277.2018 
   1   2.0000     -10.183424      -277.1051 
   2   2.0000     -10.175184      -276.8808 
   3   2.0000      -0.772937       -21.0327 
   4   2.0000      -0.672826       -18.3085 
   5   2.0000      -0.542753       -14.7691 
   6   2.0000      -0.460777       -12.5384 
   7   2.0000      -0.417390       -11.3578 
   8   2.0000      -0.407787       -11.0965 
   9   2.0000      -0.368241       -10.0203 
  10   2.0000      -0.342167        -9.3108 
  11   2.0000      -0.254496        -6.9252 
  12   0.0000       0.019015         0.5174 
  13   0.0000       0.074178         2.0185 
  14   0.0000       0.097615         2.6562 
  15   0.0000       0.109453         2.9784 
  16   0.0000       0.139067         3.7842 
  17   0.0000       0.150159         4.0860 
  18   0.0000       0.160967         4.3801 
  19   0.0000       0.260241         7.0815 
  20   0.0000       0.359318         9.7775 
  21   0.0000       0.403387        10.9767 
  22   0.0000       0.431077        11.7302 
*Only the first 10 virtual orbitals were printed.

                    ********************************
                    * MULLIKEN POPULATION ANALYSIS *
                    ********************************

-----------------------
MULLIKEN ATOMIC CHARGES
-----------------------
   0 C :   -0.033388
   1 H :    0.010085
   2 H :    0.018104
   3 C :   -0.108618
   4 C :    0.055188
   5 H :    0.002683
   6 H :    0.022955
   7 H :    0.023086
   8 H :    0.009905
Sum of atomic charges:   -0.0000000

--------------------------------
MULLIKEN REDUCED ORBITAL CHARGES
--------------------------------
  0 C s       :     3.103610  s :     3.103610
      pz      :     0.934552  p :     2.903239
      px      :     0.950465
      py      :     1.018222
      dz2     :     0.007168  d :     0.026539
      dxz     :     0.008174
      dyz     :     0.002165
      dx2y2   :     0.004840
      dxy     :     0.004191

  1 H s       :     0.966638  s :     0.966638
      pz      :     0.013637  p :     0.023277
      px      :     0.004013
      py      :     0.005627

  2 H s       :     0.958547  s :     0.958547
      pz      :     0.006295  p :     0.023349
      px      :     0.012200
      py      :     0.004854

  3 C s       :     3.164293  s :     3.164293
      pz      :     0.955173  p :     2.907993
      px      :     0.982197
      py      :     0.970624
      dz2     :     0.009317  d :     0.036332
      dxz     :     0.009691
      dyz     :     0.002650
      dx2y2   :     0.006704
      dxy     :     0.007969

  4 C s       :     2.958521  s :     2.958521
      pz      :     0.988550  p :     2.957508
      px      :     0.969714
      py      :     0.999244
      dz2     :     0.007086  d :     0.028783
      dxz     :     0.005302
      dyz     :     0.003639
      dx2y2   :     0.004847
      dxy     :     0.007909

  5 H s       :     0.975012  s :     0.975012
      pz      :     0.013540  p :     0.022305
      px      :     0.003478
      py      :     0.005287

  6 H s       :     0.953722  s :     0.953722
      pz      :     0.007012  p :     0.023323
      px      :     0.007286
      py      :     0.009026

  7 H s       :     0.953584  s :     0.953584
      pz      :     0.004911  p :     0.023331
      px      :     0.006403
      py      :     0.012017

  8 H s       :     0.967221  s :     0.967221
      pz      :     0.013161  p :     0.022874
      px      :     0.004005
      py      :     0.005708



                     *******************************
                     * LOEWDIN POPULATION ANALYSIS *
                     *******************************

----------------------
LOEWDIN ATOMIC CHARGES
----------------------
   0 C :   -0.069841
   1 H :    0.018890
   2 H :    0.022308
   3 C :   -0.030552
   4 C :   -0.056387
   5 H :    0.022984
   6 H :    0.032679
   7 H :    0.032766
   8 H :    0.027153

-------------------------------
LOEWDIN REDUCED ORBITAL CHARGES
-------------------------------
  0 C s       :     2.887314  s :     2.887314
      pz      :     1.042832  p :     3.113242
      px      :     1.060431
      py      :     1.009980
      dz2     :     0.019136  d :     0.069284
      dxz     :     0.022485
      dyz     :     0.005122
      dx2y2   :     0.013718
      dxy     :     0.008823

  1 H s       :     0.914467  s :     0.914467
      pz      :     0.039253  p :     0.066643
      px      :     0.010211
      py      :     0.017179

  2 H s       :     0.910792  s :     0.910792
      pz      :     0.017987  p :     0.066900
      px      :     0.033956
      py      :     0.014957

  3 C s       :     2.880633  s :     2.880633
      pz      :     1.041874  p :     3.060771
      px      :     1.064815
      py      :     0.954082
      dz2     :     0.023661  d :     0.089148
      dxz     :     0.026326
      dyz     :     0.005913
      dx2y2   :     0.017329
      dxy     :     0.015919

  4 C s       :     2.838044  s :     2.838044
      pz      :     1.057380  p :     3.145270
      px      :     1.028312
      py      :     1.059578
      dz2     :     0.018052  d :     0.073074
      dxz     :     0.013536
      dyz     :     0.008991
      dx2y2   :     0.012827
      dxy     :     0.019668

  5 H s       :     0.911668  s :     0.911668
      pz      :     0.038510  p :     0.065348
      px      :     0.010937
      py      :     0.015901

  6 H s       :     0.903782  s :     0.903782
      pz      :     0.018881  p :     0.063539
      px      :     0.021004
      py      :     0.023654

  7 H s       :     0.903684  s :     0.903684
      pz      :     0.011868  p :     0.063551
      px      :     0.018333
      py      :     0.033349

  8 H s       :     0.909617  s :     0.909617
      pz      :     0.037461  p :     0.063229
      px      :     0.011389
      py      :     0.014379



                      *****************************
                      * MAYER POPULATION ANALYSIS *
                      *****************************

  NA   - Mulliken gross atomic population
  ZA   - Total nuclear charge
  QA   - Mulliken gross atomic charge
  VA   - Mayer's total valence
  BVA  - Mayer's bonded valence
  FA   - Mayer's free valence

  ATOM       NA         ZA         QA         VA         BVA        FA
  0 C      6.0334     6.0000    -0.0334     3.9622     3.9622    -0.0000
  1 H      0.9899     1.0000     0.0101     0.9843     0.9843    -0.0000
  2 H      0.9819     1.0000     0.0181     0.9741     0.9741    -0.0000
  3 C      6.1086     6.0000    -0.1086     4.1432     4.1432    -0.0000
  4 C      5.9448     6.0000     0.0552     3.9297     3.9297     0.0000
  5 H      0.9973     1.0000     0.0027     0.9780     0.9780    -0.0000
  6 H      0.9770     1.0000     0.0230     0.9838     0.9838    -0.0000
  7 H      0.9769     1.0000     0.0231     0.9839     0.9839     0.0000
  8 H      0.9901     1.0000     0.0099     0.9965     0.9965    -0.0000

  Mayer bond orders larger than 0.100000
B(  0-C ,  1-H ) :   0.9526 B(  0-C ,  2-H ) :   0.9524 B(  0-C ,  3-C ) :   2.0297 
B(  3-C ,  4-C ) :   1.0769 B(  3-C ,  5-H ) :   0.9603 B(  4-C ,  6-H ) :   0.9549 
B(  4-C ,  7-H ) :   0.9548 B(  4-C ,  8-H ) :   0.9664 

-------
TIMINGS
-------

Total SCF time: 0 days 0 hours 0 min 2 sec 

Total time                  ....       2.804 sec
Sum of individual times     ....       2.605 sec  ( 92.9%)

SCF preparation             ....       0.145 sec  (  5.2%)
Fock matrix formation       ....       2.335 sec  ( 83.3%)
  Startup                   ....       0.003 sec  (  0.1% of F)
  Split-RI-J                ....       0.159 sec  (  6.8% of F)
  Chain of spheres X        ....       1.641 sec  ( 70.3% of F)
  XC integration            ....       0.615 sec  ( 26.3% of F)
    XC Preparation          ....       0.000 sec  (  0.0% of XC)
    Basis function eval.    ....       0.146 sec  ( 23.8% of XC)
    Density eval.           ....       0.064 sec  ( 10.4% of XC)
    XC-Functional eval.     ....       0.041 sec  (  6.6% of XC)
    XC-Potential eval.      ....       0.074 sec  ( 12.0% of XC)
Diagonalization             ....       0.000 sec  (  0.0%)
Density matrix formation    ....       0.018 sec  (  0.6%)
Total Energy calculation    ....       0.011 sec  (  0.4%)
Population analysis         ....       0.007 sec  (  0.3%)
Orbital Transformation      ....       0.008 sec  (  0.3%)
Orbital Orthonormalization  ....       0.000 sec  (  0.0%)
DIIS solution               ....       0.044 sec  (  1.6%)
SOSCF solution              ....       0.036 sec  (  1.3%)
Finished LeanSCF after   2.8 sec

Maximum memory used throughout the entire LEANSCF-calculation: 6.9 MB


-------------------------------------------------------------------------------
                          DFT DISPERSION CORRECTION                            
                                                                               
                              DFTD3 V3.1  Rev 1                                
                          USING Becke-Johnson damping                          
-------------------------------------------------------------------------------
The B3LYP functional is recognized
Active option DFTDOPT                   ...         4   

molecular C6(AA) [au] = 621.342664 


            DFT-D V3
 parameters
 s6 scaling factor         :     1.0000 
 a1 scaling factor         :     0.3981 
 s8 scaling factor         :     1.9889 
 a2 scaling factor         :     4.4211 
 ad hoc parameters k1-k3   :    16.0000     1.3333    -4.0000 

 Edisp/kcal,au: -5.032483058603  -0.008019771382 
 E6   /kcal   :  -2.477966529 
 E8   /kcal   :  -2.554516529 
 % E8         :  50.760558943 

-------------------------   ----------------
Dispersion correction           -0.008019771
-------------------------   ----------------


-------------------------   --------------------
FINAL SINGLE POINT ENERGY      -117.743884162137
-------------------------   --------------------



           ************************************************************
           *        Program running with 6 parallel MPI-processes     *
           *              working on a common directory               *
           ************************************************************
------------------------------------------------------------------------------
                         ORCA SCF GRADIENT CALCULATION
------------------------------------------------------------------------------

Nuc. rep. gradient        (SHARK) ... done (  0.0 sec)
HCore & Overlap gradient  (SHARK) ... done (  0.0 sec)
Split-RIJ-J gradient      (SHARK) ... done (  0.1 sec)
done (  1.2 sec)
XC gradient                       ... done (  0.3 sec)
Dispersion correction             ... done (  0.1 sec)

-------------------
DISPERSION GRADIENT
-------------------

   1   C   :    0.000333181   -0.000026271   -0.000020365
   2   H   :    0.000163059   -0.000039571   -0.000095737
   3   H   :    0.000148525   -0.000007897    0.000003005
   4   C   :    0.000025153    0.000018713    0.000064981
   5   C   :   -0.000219426    0.000011525   -0.000005009
   6   H   :    0.000036555    0.000041392    0.000140087
   7   H   :   -0.000172923   -0.000043225    0.000016983
   8   H   :   -0.000166678    0.000063969   -0.000016715
   9   H   :   -0.000147445   -0.000018636   -0.000087230

Difference to translation invariance:
           :   -0.0000000000    0.0000000000   -0.0000000000

Difference to rotation invariance:
           :   -0.0000000000   -0.0000000000   -0.0000000000

Norm of the Dispersion gradient    ...    0.0005845156
RMS gradient                       ...    0.0001124901
MAX gradient                       ...    0.0003331805

------------------
CARTESIAN GRADIENT
------------------

   1   C   :   -0.000141743    0.000019325   -0.000149923
   2   H   :    0.000024757    0.000021888    0.000099607
   3   H   :    0.000015952   -0.000011288    0.000014351
   4   C   :    0.000094314   -0.000020211    0.000105449
   5   C   :    0.000069084    0.000014799    0.000118425
   6   H   :   -0.000037859   -0.000024109   -0.000115634
   7   H   :   -0.000029347   -0.000011725   -0.000018878
   8   H   :    0.000017191   -0.000011044   -0.000044204
   9   H   :   -0.000012351    0.000022366   -0.000009192

Difference to translation invariance:
           :    0.0000000000   -0.0000000000    0.0000000000

Difference to rotation invariance:
           :    0.0000409591    0.0000713558   -0.0000543543

Norm of the Cartesian gradient     ...    0.0003373897
RMS gradient                       ...    0.0000649307
MAX gradient                       ...    0.0001499233

-------
TIMINGS
-------

Total SCF gradient time     ....        1.696 sec

Densities                   ....       0.000 sec  (  0.0%)
One electron gradient       ....       0.013 sec  (  0.8%)
RI-J Coulomb gradient       ....       0.115 sec  (  6.8%)
COSX gradient               ....       1.248 sec  ( 73.6%)
XC gradient                 ....       0.264 sec  ( 15.5%)

Maximum memory used throughout the entire SCFGRAD-calculation: 26.2 MB


           ************************************************************
           *        Program running with 6 parallel MPI-processes     *
           *              working on a common directory               *
           ************************************************************

------------------------------------------------------------------------------
                              ORCA PROPERTY CALCULATIONS
------------------------------------------------------------------------------

GBWName                                 ... orca.gbw
Number of atoms                         ...      9
Number of basis functions               ...     72
Max core memory                         ...   4096 MB

Electric properties:
Dipole moment                           ... YES
Quadrupole moment                       ...  NO
Static polarizability (Dipole/Dipole)   ...  NO
Static polarizability (Dipole/Quad.)    ...  NO
Static polarizability (Quad./Quad.)     ...  NO
Static polarizability (Velocity)        ...  NO
Static hyperpolarizability              ...  NO

Atomic electric properties:
Dipole moment                           ...  NO
Quadrupole moment                       ...  NO
Static polarizability                   ...  NO

Choice of electric origin               ... Center of mass
Position of electric origin             ...    -2.366438    -0.062131     2.600128

General magnetic properties:
Magnetizability                         ...  NO

EPR properties:
g-Tensor (aka g-matrix)                 ...  NO
Zero-Field splitting spin-orbit         ...  NO
Zero-field splitting spin-spin          ...  NO
Hyperfine couplings                     ...  NO (   0 nuclei)
Quadrupole couplings                    ...  NO (   0 nuclei)
Contact density                         ...  NO (   0 nuclei)

NMR properties:
Chemical shifts                         ...  NO (   0 nuclei)
Spin-rotation constants                 ...  NO (   0 nuclei)
Spin-spin couplings                     ...  NO (   0 nuclei,    0 pairs)

Choice of magnetic origin               ... GIAO
Position of magnetic origin             ...     0.000000     0.000000     0.000000

Properties with geometric perturbations:
SCF Hessian                             ...  NO
IR spectrum                             ...  NO
VCD spectrum                            ...  NO
X-ray spectroscopy properties:
SCF XES/XAS/RIXS spectra                ...  NO

SCF SOC stabilization energy            ...  NO
Diagonal Born-Oppenheimer correction    ...  NO

-------------
DIPOLE MOMENT
-------------

Method             : SCF
Type of density    : Electron Density
Multiplicity       :   1
Irrep              :   0
Energy             :  -117.7358643907552533 Eh
Basis              : AO
                                X                 Y                 Z
Electronic contribution:      1.020306216       0.083555982       0.467519043
Nuclear contribution   :     -1.176103409      -0.064240643      -0.436615987
                        -----------------------------------------
Total Dipole Moment    :     -0.155797193       0.019315339       0.030903056
                        -----------------------------------------
Magnitude (a.u.)       :      0.160002646
Magnitude (Debye)      :      0.406694405



--------------------
Rotational spectrum 
--------------------
 
Rotational constants in cm-1:             1.552422             0.307347             0.269481 
Rotational constants in MHz :         46540.451382          9214.020399          8078.830513 

Dipole components along the rotational axes: 
x,y,z [a.u.] :    -0.156630    -0.032674     0.000410 
x,y,z [Debye]:    -0.398123    -0.083051     0.001041 

 

Dipole moment calculation done in   0.0 sec 

Maximum memory used throughout the entire PROP-calculation: 4.3 MB

--------------------------------
SUGGESTED CITATIONS FOR THIS RUN
--------------------------------

Below you find a list of papers that are relevant to this ORCA run
We neither can nor want to force you to cite these papers, but we appreciate if you do
You receive ORCA, which is the product of decades of hard work by many enthusiastic individuals, for free
The only thing we kindly ask in return is that you cite our papers,
We deeply appreciate it, if you show your appreciation for ORCA by not just citing the generic ORCA reference.

Please note that relegating all ORCA citations to the supporting information does *not* help us.
SI sections are not indexed - citations you put there will not count into any citation statistics
But we need these citations in order to attract the funding resources that allow us to do what we are doing

Therefore, if you are a happy ORCA user, please consider citing a few of the papers listed below in the main body of your paper

In addition to the list printed below, the program has created the file orca.bibtex that contains the list in bibtex format
You can import this file easily into all common literature databanks and citation aid programs


List of essential papers. We consider these as the minimum necessary citations

  1. Neese, F.
     Software update: the ORCA program system, version 6.0
     WIRES Comput. Molec. Sci. 2025 15(1), e70019
     doi.org/10.1002/wcms.7019

List of papers to cite with high priority. The work reported in these papers was absolutely
necessary for this run to complete.
Our perspective: the developers of density functionals and basis sets usually get cited in chemistry papers
Good! But without the algorithms to do something with them, the functionals or basis sets would not do anything.
Hence, in our opinion, the algorithm design and method developments papers are equally worthy of getting cited

  1. Neese, F.
     An improvement of the resolution of the identity approximation for the formation of the Coulomb matrix
     J. Comp. Chem. 2003 24(14), 1740-1747
     doi.org/10.1002/jcc.10318
  2. Neese, F.; Wennmohs, F.; Hansen, A.; Becker, U.
     Efficient, approximate and parallel Hartree-Fock and hybrid DFT calculations. A 'chain-of-spheres' algorithm for the Hartree-Fock exchange
     Chem. Phys. 2009 356(1-3), 98-109
     doi.org/10.1016/j.chemphys.2008.10.036
  3. Grimme, S.; Antony, J.; Ehrlich, S.; Krieg, H.
     A consistent and accurate ab initio parametrization of density functional dispersion correction (DFT-D) for the 94 elements H-Pu
     J. Chem. Phys. 2010 132 , 154104
     doi.org/10.1063/1.3382344
  4. Grimme, S.; Ehrlich, S.; Goerigk, L.
     Effect of the damping function in dispersion corrected density functional theory
     J. Comput. Chem. 2011 32(7), 1456-1465
     doi.org/10.1002/jcc.21759
  5. Helmich-Paris, B.; de Souza, B.; Neese, F.; Izsák, R.
     An improved chain of spheres for exchange algorithm
     J. Chem. Phys. 2021 155(10), 104109
     doi.org/10.1063/5.0058766
  6. Neese, F.
     The SHARK Integral Generation and Digestion System
     J. Comp. Chem. 2022 44(3), 381
     doi.org/10.1002/jcc.26942

List of suggested additional citations. These are papers that are important in the 'surrounding' of 
of this run, or papers that preceded the highly important papers. If you like your results we are grateful for a citation.

  1. Izsak, R.; Neese, F.
     An overlap fitted chain of spheres exchange method
     J. Chem. Phys. 2011 135 , 144105
     doi.org/10.1063/1.3646921
  2. Izsak, R.; Hansen, A.; Neese, F.
     The resolution of identity and chain of spheres approximations for the LPNO-CCSD singles Fock term
     Molec. Phys. 2012 110 , 2413-2417
     doi.org/10.1080/00268976.2012.687466
  3. Neese, F.
     The ORCA program system
     WIRES Comput. Molec. Sci. 2012 2(1), 73-78
     doi.org/10.1002/wcms.81
  4. Izsak, R.; Neese, F.; Klopper, W.
     Robust fitting techniques in the chain of spheres approximation to the Fock exchange: The role of the complementary space
     J. Chem. Phys. 2013 139 , 
     doi.org/10.1063/1.4819264
  5. Neese, F.
     Software update: the ORCA program system, version 4.0
     WIRES Comput. Molec. Sci. 2018 8(1), 1-6
     doi.org/10.1002/wcms.1327
  6. Neese, F.; Wennmohs, F.; Becker, U.; Riplinger, C.
     The ORCA quantum chemistry program package
     J. Chem. Phys. 2020 152(22), 224108
     doi.org/10.1063/5.0004608
  7. Neese, F.
     Software update: The ORCA program system—Version 5.0
     WIRES Comput. Molec. Sci. 2022 12(1), e1606
     doi.org/10.1002/wcms.1606

List of optional additional citations

  1. Neese, F.
     Approximate second-order SCF convergence for spin unrestricted wavefunctions
     Chem. Phys. Lett. 2000 325(1-3), 93-98
     doi.org/10.1016/s0009-2614(00)00662-x

Timings for individual modules:

Sum of individual times          ...        7.141 sec (=   0.119 min)
Startup calculation              ...        0.921 sec (=   0.015 min)  12.9 %
SCF iterations                   ...        3.639 sec (=   0.061 min)  50.9 %
Property calculations            ...        0.415 sec (=   0.007 min)   5.8 %
SCF Gradient evaluation          ...        2.167 sec (=   0.036 min)  30.3 %
                             ****ORCA TERMINATED NORMALLY****
TOTAL RUN TIME: 0 days 0 hours 0 minutes 7 seconds 678 msec
