
                                 *****************
                                 * O   R   C   A *
                                 *****************

                                            #,                                       
                                            ###                                      
                                            ####                                     
                                            #####                                    
                                            ######                                   
                                           ########,                                 
                                     ,,################,,,,,                         
                               ,,#################################,,                 
                          ,,##########################################,,             
                       ,#########################################, ''#####,          
                    ,#############################################,,   '####,        
                  ,##################################################,,,,####,       
                ,###########''''           ''''###############################       
              ,#####''   ,,,,##########,,,,          '''####'''          '####       
            ,##' ,,,,###########################,,,                        '##       
           ' ,,###''''                  '''############,,,                           
         ,,##''                                '''############,,,,        ,,,,,,###''
      ,#''                                            '''#######################'''  
     '                                                          ''''####''''         
             ,#######,   #######,   ,#######,      ##                                
            ,#'     '#,  ##    ##  ,#'     '#,    #''#        ,####,    ,#,          
            ##       ##  ##   ,#'  ##            #'  '#       #'       ,# #          
            ##       ##  #######   ##           ,######,      #####,      #          
            '#,     ,#'  ##    ##  '#,     ,#' ,#      #,     #,   #      #          
             '#######'   ##     ##  '#######'  #'      '#     '####' #    #          



                #########################################################
                #                        -***-                          #
                #          Department of theory and spectroscopy        #
                #                                                       #
                #                      Frank Neese                      #
                #                                                       #
                #     Directorship, Architecture, Infrastructure        #
                #                    SHARK, DRIVERS                     #
                #        Core code/Algorithms in most modules           #
                #                                                       #
                #        Max Planck Institute fuer Kohlenforschung      #
                #                Kaiser Wilhelm Platz 1                 #
                #                 D-45470 Muelheim/Ruhr                 #
                #                      Germany                          #
                #                                                       #
                #                  All rights reserved                  #
                #                        -***-                          #
                #########################################################


                         Program Version 6.1.0  -  RELEASE   -
                                (GIT: $679e74b$)
                          ($2025-06-10 18:02:51 +0200$)


 With contributions from (in alphabetic order):
[Max-Planck-Institut fuer Kohlenforschung]                               
  Daniel Aravena         : Magnetic Suceptibility                        
  Michael Atanasov       : Ab Initio Ligand Field Theory (pilot matlab implementation)
  Alexander A. Auer      : GIAO ZORA, VPT2 properties, NMR spectrum      
  Ute Becker             : All parallelization in ORCA, NUMFREQ, NUMCALC 
  Giovanni Bistoni       : ED, misc. LED, open-shell LED, HFLD           
  Dmytro Bykov           : pre 5.0 version of the SCF Hessian            
  Marcos Casanova-Páez   : Triplet and SCS-CIS(D). UHF-(DLPNO)-IP/EA/STEOM-CCSD. UHF-CVS-IP/STEOM-CCSD   
  Vijay G. Chilkuri      : MRCI spin determinant printing, contributions to CSF-ICE 
  Pauline Colinet        : FMM embedding                                 
  Dipayan Datta          : RHF DLPNO-CCSD density                        
  Achintya Kumar Dutta   : EOM-CC, STEOM-CC                              
  Nicolas Foglia         : Exact transition moments, OPA infrastructure, MCD improvements    
  Dmitry Ganyushin       : Spin-Orbit,Spin-Spin,Magnetic field MRCI      
  Miquel Garcia-Rates    : C-PCM and meta-GGA Hessian, CCSD/C-PCM, Gaussian charge scheme 
  Tiago L. C. Gouveia    : GS-ROHF, GS-ROCIS                             
  Yang Guo               : DLPNO-NEVPT2, F12-NEVPT2, CIM, IAO-localization        
  Andreas Hansen         : Spin unrestricted coupled pair/coupled cluster methods 
  Ingolf Harden          : AUTO-CI MPn and infrastructure                
  Benjamin Helmich-Paris : MC-RPA, TRAH-(SCF,CASSCF), AVAS, COSX integrals, SCF dyn. polar., MC-PDFT, srDFT 
  Lee Huntington         : MR-EOM, pCC                                   
  Robert Izsak           : Overlap fitted RIJCOSX, COSX-SCS-MP3, EOM     
  Riya Kayal             : Wick's Theorem for AUTO-CI, AUTO-CI UHF-CCSDT 
  Emily Kempfer          : AUTO-CI RHF CISDT and CCSDT, approximate NEVPT4
  Christian Kollmar      : KDIIS, OOCD, Brueckner-CCSD(T), CCSD density, CASPT2, CASPT2-K, improved NEVPT2 
  Axel Koslowski         : Symmetry handling                             
  Simone Kossmann        : meta-GGA functionals, TD-DFT gradient, OOMP2, (MP2 Hessian; deprecated post 5.0) 
  Lucas Lang             : DCDCAS, Hyperfine gauge corrections, ICE-SOC+SSC
  Marvin Lechner         : AUTO-CI (C++ implementation), FIC-MRCC        
  Spencer Leger          : CASSCF response                               
  Dagmar Lenk            : GEPOL surface, SMD, ORCA-2-JSON               
  Dimitrios Liakos       : Extrapolation schemes; Compound Job, Property file
  Dimitrios Manganas     : Further ROCIS development; embedding schemes. LFT, Crystal Embedding 
  Dimitrios Pantazis     : SARC Basis sets                               
  Anastasios Papadopoulos: AUTO-CI, single reference methods and gradients 
  Taras Petrenko         : pre 6.0 DFT Hessian and TD-DFT gradient,  ECA, NRVS 
  Petra Pikulova         : Analytic Raman intensities                    
  Peter Pinski           : DLPNO-MP2, DLPNO-MP2 Gradient                 
  Shashank Vittal Rao    : ES-AILFT, MagRelax                            
  Christoph Reimann      : Effective Core Potentials                     
  Marius Retegan         : Local ZFS, SOC                                
  Christoph Riplinger    : Optimizer, TS searches, QM/MM, DLPNO-CCSD(T), (RO)-DLPNO pert. Triples 
  Michael Roemelt        : Original ROCIS implementation, recursive CI coupling coefficients
  Masaaki Saitow         : Open-shell DLPNO-CCSD energy and density      
  Barbara Sandhoefer     : DKH picture change effects                    
  Yorick L. A. Schmerwitz: GMF and freeze-and-release deltaSCF, NEB S-IDPP initial path                    
  Kantharuban Sivalingam : CASSCF convergence/infrastructure, NEVPT2, NEVPT3, NEVPT4(SD), FIC-MRCI and CEPA variants
  Bernardo de Souza      : ESD, SOC TD-DFT                               
  Georgi L. Stoychev     : AutoAux, RI-MP2 NMR, DLPNO-MP2 response, X2C  
  Van Anh Tran           : RI-MP2 g-tensors                              
  Willem Van den Heuvel  : Paramagnetic NMR                              
  Zikuan Wang            : NOTCH, Electric field optimization            
  Frank Wennmohs         : Technical directorship and infrastructure     
  Hang Xu                : AUTO-CI-Response properties                   
                                                                         
[FACCTs GmbH]                                                            
  Markus Bursch, Nicolas Foglia, Miquel Garcia-Rates, Ingolf Harden, Hagen Neugebauer, Anastasios Papadopoulos, 
  Christoph Riplinger, Bernardo de Souza, Georgi L. Stoychev                                                    
                                                                 
  APM, various basis sets, CI-OPT, improved COSX, DLPNO-Multilevel,           
  DOCKER, DRACO, updates on ESD, Fragmentator, GOAT, IRC, LR-CPCM, L-BFGS, MBIS, meta-GGA TD-DFT gradient, ML-optimized integration grids, 
  MM, NACMEs, nearIR, NEB, NEB-TS, NL-DFT gradient (VV10), 2- and 3-layer-ONIOM, interface openCOSMO-RS, QMMM,   
  Crystal-QMMM, RESP, rigid body optimization, SF, symmetry and pop. for TD-DFT, various functionals, SOLVATOR                                   
                                                                         
[Other institutions]                                                     
  V. Asgeirsson          : NEB                                           
  Christoph Bannwarth    : sTDA-DFT, sTD-DFT, PBEh-3c, B97-3c, D3        
  Giovanni Bistoni       : ETS/NOCV, ADLD/ADEX, COVALED                  
  Martin Brehm           : Molecular dynamics                            
  Ronald Cardenas        : ETS/NOCV                                      
  Martina Colucci        : COVALED                                       
  Sebastian Ehlert       : rSCAN, r2SCAN, r2SCAN-3c, D4, dhf basis sets  
  Marvin Friede          : D4 for Fr, Ra, Ac-Lr                          
  Lars Goerigk           : TD-DFT with DH, B97 family of functionals     
  Stefan Grimme          : VdW corrections, initial TS optimization, DFT functionals, gCP, sTDA/sTD-DF 
  Waldemar Hujo          : DFT-NL                                        
  H. Jonsson             : NEB                                           
  Holger Kruse           : gCP                                           
  Marcel Mueller         : wB97X-3c, vDZP basis set                      
  Hagen Neugebauer       : wr2SCAN, Native XTB                           
  Gianluca Regni         : ADLD/ADEX                                     
  Tobias Risthaus        : pre 6.0 range-separated hybrid DFT and stability analysis
  Lukas Wittmann         : regularized MP2, r2SCAN double-hybrids, wr2SCAN        
                                                                         
We gratefully acknowledge several colleagues who have allowed us to      
interface, adapt or use parts of their codes:                            
  Ed Valeev, F. Pavosevic, A. Kumar             : LibInt (2-el integral package), F12 methods 
  Garnet Chan, S. Sharma, J. Yang, R. Olivares  : DMRG                   
  Ulf Ekstrom                                   : XCFun DFT Library      
  Mihaly Kallay                                 : mrcc  (arbitrary order and MRCC methods)
  Frank Weinhold                                : gennbo (NPA and NBO analysis)           
  Simon Mueller                                 : openCOSMO-RS                            
  Christopher J. Cramer and Donald G. Truhlar   : smd solvation model                     
  S Lehtola, MJT Oliveira, MAL Marques          : LibXC Library                           
  Liviu Ungur et al                             : ANISO software                          


 Your calculation uses the libint2 library for the computation of 2-el integrals
 For citations please refer to: http://libint.valeyev.net

 Your ORCA version has been built with support for libXC version: 7.0.0
 For citations please refer to: https://libxc.gitlab.io

 This ORCA versions uses:
   CBLAS   interface :  Fast vector & matrix operations
   LAPACKE interface :  Fast linear algebra routines
   SCALAPACK package :  Parallel linear algebra routines
   Shared memory     :  Shared parallel matrices
   BLAS/LAPACK       :  OpenBLAS 0.3.29  USE64BITINT DYNAMIC_ARCH NO_AFFINITY Zen SINGLE_THREADED
        Core in use  :  Zen
   Copyright (c) 2011-2014, The OpenBLAS Project


  ***********************************
  * Starting time: Wed Sep 10 13:37:25 2025
  * Host name:     wyk-Server
  * Process ID:    2305024
  * Working dir.:  /home/wyk/Documents/code/openQDC/MGMR/singlepointcalc/89/sp
  ***********************************

Your calculation utilizes the atom-pairwise dispersion correction
with the Becke-Johnson damping scheme (D3BJ)


Warning: RI is on but no J-basis has been assigned. Assigning Def2/J (nothing to worry about!)
================================================================================

----- Orbital basis set information -----
Your calculation utilizes the basis: def2-SVP
   F. Weigend and R. Ahlrichs, Phys. Chem. Chem. Phys. 7, 3297 (2005).

----- AuxJ basis set information -----
Your calculation utilizes the auxiliary basis: def2/J
   H-Rn: F. Weigend, Phys. Chem. Chem. Phys. 8, 1057 (2006).
   Fr-Lr: K. Eichkorn, F. Weigend, O. Treutler, R. Ahlrichs; Theor. Chem. Acc. 97, 119 (1997).

================================================================================
                                        WARNINGS
                       Please study these warnings very carefully!
================================================================================


================================================================================
                                       INPUT FILE
================================================================================
NAME = orca.inp
|  1> ! B3LYP def2-SVP d3 EnGrad 
|  2> %pal nprocs 6 end 
|  3> *xyz 0 1 
|  4> C   0.61573028047072 -0.15364523896039 0.3814272433306
|  5> C   1.13031553510508 1.05132794887388 -0.12072251390159
|  6> C   2.47716046300012 1.12735720939239 -0.49552676183219
|  7> C   3.32247741279276 0.02416948441912 -0.37226611285923
|  8> C   2.80575043265471 -1.17421928465001 0.13626752046021
|  9> C   1.46678342015484 -1.26578995175754 0.50740799237424
| 10> O   -0.66275474373336 -0.34874923006317 0.80446866511203
| 11> C   -1.72734683717688 0.52879942220178 0.45429491886137
| 12> C   -2.7049189360623 -0.18607344085521 -0.4318887553646
| 13> C   -3.99950074180488 -0.34544368958947 -0.1504583378915
| 14> H   0.50454321496508 1.93914261554279 -0.2150203259831
| 15> H   2.86526655588048 2.07249275828957 -0.8845829331256
| 16> H   4.3720496062989 0.09529351473633 -0.66592358598396
| 17> H   3.45249446667813 -2.04933523146845 0.24207805540175
| 18> H   1.04444532257447 -2.1921189422124 0.90186238802453
| 19> H   -2.21471040124914 0.85742169305094 1.38722076767908
| 20> H   -2.28717160152658 -0.58630042167194 -1.36389743518558
| 21> H   -4.67735741451438 -0.85970434756511 -0.83737878197906
| 22> H   -4.4324559835291 0.03709553696556 0.78033476434302
| 23> H   -1.35080005097866 1.42827959532132 -0.05769677148041
| 24> *
| 25> 
| 26>                          ****END OF INPUT****
================================================================================

                     *******************************
                     * Energy+Gradient Calculation *
                     *******************************

---------------------------------
CARTESIAN COORDINATES (ANGSTROEM)
---------------------------------
  C      0.615730   -0.153645    0.381427
  C      1.130316    1.051328   -0.120723
  C      2.477160    1.127357   -0.495527
  C      3.322477    0.024169   -0.372266
  C      2.805750   -1.174219    0.136268
  C      1.466783   -1.265790    0.507408
  O     -0.662755   -0.348749    0.804469
  C     -1.727347    0.528799    0.454295
  C     -2.704919   -0.186073   -0.431889
  C     -3.999501   -0.345444   -0.150458
  H      0.504543    1.939143   -0.215020
  H      2.865267    2.072493   -0.884583
  H      4.372050    0.095294   -0.665924
  H      3.452494   -2.049335    0.242078
  H      1.044445   -2.192119    0.901862
  H     -2.214710    0.857422    1.387221
  H     -2.287172   -0.586300   -1.363897
  H     -4.677357   -0.859704   -0.837379
  H     -4.432456    0.037096    0.780335
  H     -1.350800    1.428280   -0.057697

----------------------------
CARTESIAN COORDINATES (A.U.)
----------------------------
  NO LB      ZA    FRAG     MASS         X           Y           Z
   0 C     6.0000    0    12.011    1.163562   -0.290347    0.720793
   1 C     6.0000    0    12.011    2.135987    1.986722   -0.228132
   2 C     6.0000    0    12.011    4.681155    2.130396   -0.936410
   3 C     6.0000    0    12.011    6.278572    0.045674   -0.703481
   4 C     6.0000    0    12.011    5.302100   -2.218953    0.257508
   5 C     6.0000    0    12.011    2.771819   -2.391996    0.958862
   6 O     8.0000    0    15.999   -1.252425   -0.659041    1.520225
   7 C     6.0000    0    12.011   -3.264212    0.999286    0.858493
   8 C     6.0000    0    12.011   -5.111556   -0.351628   -0.816151
   9 C     6.0000    0    12.011   -7.557961   -0.652794   -0.284325
  10 H     1.0000    0     1.008    0.953448    3.664448   -0.406330
  11 H     1.0000    0     1.008    5.414569    3.916444   -1.671619
  12 H     1.0000    0     1.008    8.261976    0.180079   -1.258413
  13 H     1.0000    0     1.008    6.524269   -3.872682    0.457461
  14 H     1.0000    0     1.008    1.973716   -4.142504    1.704273
  15 H     1.0000    0     1.008   -4.185196    1.620292    2.621467
  16 H     1.0000    0     1.008   -4.322128   -1.107947   -2.577393
  17 H     1.0000    0     1.008   -8.838925   -1.624606   -1.582417
  18 H     1.0000    0     1.008   -8.376128    0.070100    1.474619
  19 H     1.0000    0     1.008   -2.552642    2.699057   -0.109031

--------------------------------
INTERNAL COORDINATES (ANGSTROEM)
--------------------------------
 C      0   0   0     0.000000000000     0.00000000     0.00000000
 C      1   0   0     1.403179513239     0.00000000     0.00000000
 C      2   1   0     1.400089258768   119.68392328     0.00000000
 C      3   2   1     1.395269540169   121.07906844   359.68028669
 C      4   3   2     1.400624457180   119.01653911   359.97683451
 C      5   4   3     1.392466551674   120.51675790     0.30864862
 O      1   2   3     1.360718034348   125.37698996   178.57490206
 C      7   1   2     1.423400721890   122.53671887    17.77596837
 C      8   7   1     1.500670491254   109.80385106   113.36330339
 C      9   8   7     1.334370266388   124.35698516   121.76573816
 H      2   1   3     1.090274257409   121.31511023   180.76189209
 H      3   2   1     1.093285072404   118.92727504   180.04227824
 H      4   3   2     1.092197385362   120.46156186   180.11953735
 H      5   4   3     1.093298511490   120.11658874   180.10190286
 H      6   5   4     1.091810028106   121.60437510   179.74347362
 H      8   7   1     1.102663357456   107.82840407   234.07232088
 H      9   8   7     1.096966112032   115.30593574   301.59010017
 H     10   9   8     1.093532527904   121.67333578   178.90695689
 H     10   9   8     1.095519192145   121.39345703   359.10893692
 H      8   7   1     1.101357142352   111.23316874   351.73092570

---------------------------
INTERNAL COORDINATES (A.U.)
---------------------------
 C      0   0   0     0.000000000000     0.00000000     0.00000000
 C      1   0   0     2.651624996752     0.00000000     0.00000000
 C      2   1   0     2.645785262117   119.68392328     0.00000000
 C      3   2   1     2.636677313922   121.07906844   359.68028669
 C      4   3   2     2.646796640542   119.01653911   359.97683451
 C      5   4   3     2.631380433309   120.51675790     0.30864862
 O      1   2   3     2.571384430406   125.37698996   178.57490206
 C      7   1   2     2.689837543198   122.53671887    17.77596837
 C      8   7   1     2.835856245726   109.80385106   113.36330339
 C      9   8   7     2.521594364721   124.35698516   121.76573816
 H      2   1   3     2.060319757368   121.31511023   180.76189209
 H      3   2   1     2.066009373148   118.92727504   180.04227824
 H      4   3   2     2.063953942519   120.46156186   180.11953735
 H      5   4   3     2.066034769339   120.11658874   180.10190286
 H      6   5   4     2.063221943389   121.60437510   179.74347362
 H      8   7   1     2.083731763501   107.82840407   234.07232088
 H      9   8   7     2.072965529933   115.30593574   301.59010017
 H     10   9   8     2.066476996273   121.67333578   178.90695689
 H     10   9   8     2.070231247608   121.39345703   359.10893692
 H      8   7   1     2.081263374684   111.23316874   351.73092570

---------------------
BASIS SET INFORMATION
---------------------
There are 3 groups of distinct atoms

 Group   1 Type C   : 7s4p1d contracted to 3s2p1d pattern {511/31/1}
 Group   2 Type O   : 7s4p1d contracted to 3s2p1d pattern {511/31/1}
 Group   3 Type H   : 4s1p contracted to 2s1p pattern {31/1}

Atom   0C    basis set group =>   1
Atom   1C    basis set group =>   1
Atom   2C    basis set group =>   1
Atom   3C    basis set group =>   1
Atom   4C    basis set group =>   1
Atom   5C    basis set group =>   1
Atom   6O    basis set group =>   2
Atom   7C    basis set group =>   1
Atom   8C    basis set group =>   1
Atom   9C    basis set group =>   1
Atom  10H    basis set group =>   3
Atom  11H    basis set group =>   3
Atom  12H    basis set group =>   3
Atom  13H    basis set group =>   3
Atom  14H    basis set group =>   3
Atom  15H    basis set group =>   3
Atom  16H    basis set group =>   3
Atom  17H    basis set group =>   3
Atom  18H    basis set group =>   3
Atom  19H    basis set group =>   3
---------------------------------
AUXILIARY/J BASIS SET INFORMATION
---------------------------------
There are 3 groups of distinct atoms

 Group   1 Type C   : 12s5p4d2f1g contracted to 6s4p3d1f1g pattern {711111/2111/211/2/1}
 Group   2 Type O   : 12s5p4d2f1g contracted to 6s4p3d1f1g pattern {711111/2111/211/2/1}
 Group   3 Type H   : 5s2p1d contracted to 3s1p1d pattern {311/2/1}

Atom   0C    basis set group =>   1
Atom   1C    basis set group =>   1
Atom   2C    basis set group =>   1
Atom   3C    basis set group =>   1
Atom   4C    basis set group =>   1
Atom   5C    basis set group =>   1
Atom   6O    basis set group =>   2
Atom   7C    basis set group =>   1
Atom   8C    basis set group =>   1
Atom   9C    basis set group =>   1
Atom  10H    basis set group =>   3
Atom  11H    basis set group =>   3
Atom  12H    basis set group =>   3
Atom  13H    basis set group =>   3
Atom  14H    basis set group =>   3
Atom  15H    basis set group =>   3
Atom  16H    basis set group =>   3
Atom  17H    basis set group =>   3
Atom  18H    basis set group =>   3
Atom  19H    basis set group =>   3


           ************************************************************
           *        Program running with 6 parallel MPI-processes     *
           *              working on a common directory               *
           ************************************************************
------------------------------------------------------------------------------
                             ORCA STARTUP CALCULATIONS
                           -- RI-GTO INTEGRALS CHOSEN --
------------------------------------------------------------------------------
------------------------------------------------------------------------------
                   ___                                                        
                  /   \      - P O W E R E D   B Y -                         
                 /     \                                                     
                 |  |  |   _    _      __       _____    __    __             
                 |  |  |  | |  | |    /  \     |  _  \  |  |  /  |          
                  \  \/   | |  | |   /    \    | | | |  |  | /  /          
                 / \  \   | |__| |  /  /\  \   | |_| |  |  |/  /          
                |  |  |   |  __  | /  /__\  \  |    /   |      \           
                |  |  |   | |  | | |   __   |  |    \   |  |\   \          
                \     /   | |  | | |  |  |  |  | |\  \  |  | \   \       
                 \___/    |_|  |_| |__|  |__|  |_| \__\ |__|  \__/        
                                                                              
                      - O R C A' S   B I G   F R I E N D -                    
                                      &                                       
                       - I N T E G R A L  F E E D E R -                       
                                                                              
 v1 FN, 2020, v2 2021, v3 2022-2024                                           
------------------------------------------------------------------------------


----------------------
SHARK INTEGRAL PACKAGE
----------------------

Number of atoms                             ...     20
Number of basis functions                   ...    190
Number of shells                            ...     90
Maximum angular momentum                    ...      2
Integral batch strategy                     ... SHARK/LIBINT Hybrid
RI-J (if used) integral strategy            ... SPLIT-RIJ (Revised 2003 algorithm where possible)
Printlevel                                  ...      1
Contraction scheme used                     ... SEGMENTED contraction
Prescreening option                         ... SCHWARTZ
   Thresh                                   ... 2.500e-11
   Tcut                                     ... 2.500e-12
   Tpresel                                  ... 2.500e-12 
Coulomb Range Separation                    ... NOT USED
Exchange Range Separation                   ... NOT USED
Multipole approximations                    ... NOT USED
Finite Nucleus Model                        ... NOT USED
CABS basis                                  ... NOT available
Auxiliary Coulomb fitting basis             ... AVAILABLE
   # of basis functions in Aux-J            ...    600
   # of shells in Aux-J                     ...    200
   Maximum angular momentum in Aux-J        ...      4
Auxiliary J/K fitting basis                 ... NOT available
Auxiliary Correlation fitting basis         ... NOT available
Auxiliary 'external' fitting basis          ... NOT available

Checking pre-screening integrals            ... done (  0.0 sec) Dimension = 90
   => SHARK Basis and OBASIS are compatible. Storing Pre-screening
Shell pair information
Shell pair cut-off parameter TPreSel        ...   2.5e-12
Total number of shell pairs                 ...      4095
Shell pairs after pre-screening             ...      3579
Total number of primitive shell pairs       ...     14695
Primitive shell pairs kept                  ...      9144
          la=0 lb=0:   1133 shell pairs
          la=1 lb=0:   1317 shell pairs
          la=1 lb=1:    409 shell pairs
          la=2 lb=0:    426 shell pairs
          la=2 lb=1:    249 shell pairs
          la=2 lb=2:     45 shell pairs

Checking whether 4 symmetric matrices of dimension 190 fit in memory
:Max Core in MB      =   4096.00
 MB in use           =      7.91
 MB left             =   4088.09
 MB needed           =      0.55
 Data fit in memory  = YES
Calculating RI/J V-Matrix + Cholesky decomp.... done (  0.0 sec)
Calculating Nuclear repulsion               ... done (  0.0 sec) ENN=    473.664647997816 Eh

Diagonalization of the overlap matrix:
Smallest eigenvalue                        ... 2.846e-04
Time for diagonalization                   ...    0.006 sec
Threshold for overlap eigenvalues          ... 1.000e-07
Number of eigenvalues below threshold      ... 0
Time for construction of square roots      ...    0.002 sec
Total time needed                          ...    0.010 sec

-------------------
DFT GRID GENERATION
-------------------

General Integration Accuracy     IntAcc      ... 4.388
Radial Grid Type                 RadialGrid  ... OptM3 with GC (2021)
Angular Grid (max. ang.)         AngularGrid ... 4 (Lebedev-302)
Angular grid pruning method      GridPruning ... 4 (adaptive)
Weight generation scheme         WeightScheme... mBecke (2022)
Basis function cutoff            BFCut       ... 1.0000e-11
Integration weight cutoff        WCut        ... 1.0000e-14
Partially contracted basis set               ... off
Rotationally invariant grid construction     ... off
Angular grids for H and He will be reduced by one unit

Total number of grid points                  ...    92438
Total number of batches                      ...     1453
Average number of points per batch           ...       63
Average number of grid points per atom       ...     4622

--------------------
COSX GRID GENERATION
--------------------

GRIDX 1
-------
General Integration Accuracy     IntAcc      ... 3.816
Radial Grid Type                 RadialGrid  ... OptM3 with GC (2021)
Angular Grid (max. ang.)         AngularGrid ... 1 (Lebedev-50)
Angular grid pruning method      GridPruning ... 4 (adaptive)
Weight generation scheme         WeightScheme... mBecke (2022)
Basis function cutoff            BFCut       ... 1.0000e-11
Integration weight cutoff        WCut        ... 1.0000e-14
Partially contracted basis set               ... on
Rotationally invariant grid construction     ... off
Angular grids for H and He will be reduced by one unit

Total number of grid points                  ...    11822
Total number of batches                      ...      103
Average number of points per batch           ...      114
Average number of grid points per atom       ...      591
UseSFitting                                  ... on

GRIDX 2
-------
General Integration Accuracy     IntAcc      ... 4.020
Radial Grid Type                 RadialGrid  ... OptM3 with GC (2021)
Angular Grid (max. ang.)         AngularGrid ... 2 (Lebedev-110)
Angular grid pruning method      GridPruning ... 4 (adaptive)
Weight generation scheme         WeightScheme... mBecke (2022)
Basis function cutoff            BFCut       ... 1.0000e-11
Integration weight cutoff        WCut        ... 1.0000e-14
Partially contracted basis set               ... on
Rotationally invariant grid construction     ... off
Angular grids for H and He will be reduced by one unit

Total number of grid points                  ...    25555
Total number of batches                      ...      210
Average number of points per batch           ...      121
Average number of grid points per atom       ...     1278
UseSFitting                                  ... on

GRIDX 3
-------
General Integration Accuracy     IntAcc      ... 4.338
Radial Grid Type                 RadialGrid  ... OptM3 with GC (2021)
Angular Grid (max. ang.)         AngularGrid ... 3 (Lebedev-194)
Angular grid pruning method      GridPruning ... 4 (adaptive)
Weight generation scheme         WeightScheme... mBecke (2022)
Basis function cutoff            BFCut       ... 1.0000e-11
Integration weight cutoff        WCut        ... 1.0000e-14
Partially contracted basis set               ... on
Rotationally invariant grid construction     ... off
Angular grids for H and He will be reduced by one unit

Total number of grid points                  ...    56138
Total number of batches                      ...      450
Average number of points per batch           ...      124
Average number of grid points per atom       ...     2807
UseSFitting                                  ... on
Grids setup in   1.4 sec
Initializing property integral containers    ... done (  0.0 sec)

SHARK setup successfully completed in   1.6 seconds

Maximum memory used throughout the entire STARTUP-calculation: 26.1 MB


           ************************************************************
           *        Program running with 6 parallel MPI-processes     *
           *              working on a common directory               *
           ************************************************************
-------------------------------------------------------------------------------
                                 ORCA GUESS
                   Start orbitals & Density for SCF / CASSCF
-------------------------------------------------------------------------------

------------
SCF SETTINGS
------------
Hamiltonian:
 Density Functional     Method          .... DFT(GTOs)
 Exchange Functional    Exchange        .... B88
   X-Alpha parameter    XAlpha          ....  0.666667
   Becke's b parameter  XBeta           ....  0.004200
 Correlation Functional Correlation     .... LYP
 LDA part of GGA corr.  LDAOpt          .... VWN-5
 Gradients option       PostSCFGGA      .... off
 Hybrid DFT is turned on
   Fraction HF Exchange ScalHFX         ....  0.200000
   Scaling of DF-GGA-X  ScalDFX         ....  0.720000
   Scaling of DF-GGA-C  ScalDFC         ....  0.810000
   Scaling of DF-LDA-C  ScalLDAC        ....  1.000000
   Perturbative correction              ....  0.000000
   NL short-range parameter             ....  4.800000
 RI-approximation to the Coulomb term is turned on
   Number of AuxJ basis functions       .... 600
   RIJ-COSX (HFX calculated with COS-X)).... on


General Settings:
 Integral files         IntName         .... orca
 Hartree-Fock type      HFTyp           .... RHF
 Total Charge           Charge          ....    0
 Multiplicity           Mult            ....    1
 Number of Electrons    NEL             ....   72
 Basis Dimension        Dim             ....  190
 Nuclear Repulsion      ENuc            ....    473.6646479978 Eh

Convergence Acceleration:
 AO-DIIS                CNVDIIS         .... on
   Start iteration      DIISMaxIt       ....    12
   Startup error        DIISStart       ....  0.200000
   # of expansion vecs  DIISMaxEq       ....     5
   Bias factor          DIISBfac        ....   1.050
   Max. coefficient     DIISMaxC        ....  10.000
 MO-DIIS                CNVKDIIS        .... off
 Trust-Rad. Augm. Hess. CNVTRAH         .... auto
   Auto Start mean grad. ratio tolernc. ....  1.125000
   Auto Start start iteration           ....    50
   Auto Start num. interpolation iter.  ....    10
   Max. Number of Micro iterations      ....    24
   Max. Number of Macro iterations      .... Maxiter - #DIIS iter
   Number of Davidson start vectors     ....     2
   Converg. threshold    (grad. norm)   ....   1.000e-05
   Grad. Scal. Fac. for Micro threshold ....   0.100
   Minimum threshold for Micro iter.    ....   1.000e-02
   NR start threshold (gradient norm)   ....   1.000e-04
   Initial trust radius                 ....   0.400
   Minimum AH scaling param. (alpha)    ....   1.000
   Maximum AH scaling param. (alpha)    .... 1000.000
   Quad. conv. algorithm                .... NR
   White noise on init. David. guess    .... on
   Maximum white noise                  ....   0.010
   Pseudo random numbers                .... off
   Inactive MOs                         .... canonical
   Orbital update algorithm             .... Taylor
   Preconditioner                       .... Diag
   Full preconditioner red. dimension   ....   250
 SOSCF                 CNVSOSCF           .... on
   Start iteration     SOSCFMaxIt         ....   150
   Startup grad/error  SOSCFStart         ....  0.003300
   Hessian update      SOSCFHessUp        .... L-BFGS
   Autom. constraints  SOSCFAutoConstrain .... off
 Level Shifting         CNVShift        .... on
   Level shift para.    LevelShift      ....    0.2500
   Turn off err/grad.   ShiftErr        ....    0.0010
 Zerner damping         CNVZerner       .... off
 Static damping         CNVDamp         .... on
   Fraction old density DampFac         ....    0.7000
   Max. Damping (<1)    DampMax         ....    0.9800
   Min. Damping (>=0)   DampMin         ....    0.0000
   Turn off err/grad.   DampErr         ....    0.1000

SCF Procedure:
 Maximum # iterations   MaxIter         ....   125
 SCF integral mode      SCFMode         .... Direct
   Integral package                     .... SHARK and LIBINT hybrid scheme
 Reset frequency        DirectResetFreq ....    20
 Integral Threshold     Thresh          ....  2.500e-11 Eh
 Primitive CutOff       TCut            ....  2.500e-12 Eh

Convergence Tolerance:
 Convergence Check Mode ConvCheckMode   .... Total+1el-Energy
 Convergence forced     ConvForced      .... 0
 Energy Change          TolE            ....  1.000e-08 Eh
 1-El. energy change                    ....  1.000e-05 Eh
 Orbital Gradient       TolG            ....  1.000e-05
 Orbital Rotation angle TolX            ....  1.000e-05
 DIIS Error             TolErr          ....  5.000e-07

------------------------------
INITIAL GUESS: MODEL POTENTIAL
------------------------------
Loading Hartree-Fock densities                     ... done
Calculating cut-offs                               ... done
Initializing the effective Hamiltonian             ... done
Setting up the integral package (SHARK)            ... done
Starting the Coulomb interaction                   ... done (   0.1 sec)
Making the grid                                    ... done (   0.2 sec)
Mapping shells                                     ... done
Starting the XC term evaluation                    ... done (   0.1 sec)
  promolecular density results
     # of electrons  =     71.999947703
     EX              =    -57.401307622
     EC              =     -2.397114304
     EX+EC           =    -59.798421927
Transforming the Hamiltonian                       ... done (   0.0 sec)
Diagonalizing the Hamiltonian                      ... done (   0.0 sec)
Back transforming the eigenvectors                 ... done (   0.0 sec)
Now organizing SCF variables                       ... done
                      ------------------
                      INITIAL GUESS DONE (   0.3 sec)
                      ------------------
             **** ENERGY FILE WAS UPDATED (orca.en.tmp) ****
Finished Guess after   0.5 sec
Maximum memory used throughout the entire GUESS-calculation: 10.8 MB


           ************************************************************
           *        Program running with 6 parallel MPI-processes     *
           *              working on a common directory               *
           ************************************************************

-------------------------------------------------------------------------------------------
                                      ORCA LEAN-SCF
                              memory conserving SCF solver
-------------------------------------------------------------------------------------------

----------------------------------------D-I-I-S--------------------------------------------
Iteration    Energy (Eh)           Delta-E    RMSDP     MaxDP     DIISErr   Damp  Time(sec)
-------------------------------------------------------------------------------------------
               ***  Starting incremental Fock matrix formation  ***
    1    -423.3733256465886257     0.00e+00  7.67e-03  6.33e-02  1.48e-01  0.700   1.7
    2    -423.4708529239982795    -9.75e-02  5.48e-03  4.07e-02  7.98e-02  0.700   0.9
                               ***Turning on AO-DIIS***
    3    -423.5139683025490172    -4.31e-02  2.47e-03  1.41e-02  3.34e-02  0.700   0.9
    4    -423.5387776716043504    -2.48e-02  4.58e-03  2.26e-02  1.77e-02  0.000   0.9
    5    -423.5915783376011063    -5.28e-02  6.27e-04  4.82e-03  5.01e-03  0.000   0.9
                              *** Initializing SOSCF ***
---------------------------------------S-O-S-C-F--------------------------------------
Iteration    Energy (Eh)           Delta-E    RMSDP     MaxDP     MaxGrad    Time(sec)
--------------------------------------------------------------------------------------
    6    -423.5918346383853645    -2.56e-04  2.33e-04  1.95e-03  1.42e-03     0.9
               *** Restarting incremental Fock matrix formation ***
    7    -423.5917959219344198     3.87e-05  1.82e-04  1.75e-03  2.60e-04     1.7
    8    -423.5917925157428385     3.41e-06  8.38e-05  1.06e-03  6.23e-04     1.3
    9    -423.5917990337819106    -6.52e-06  3.20e-05  2.41e-04  7.27e-05     1.3
   10    -423.5917989264335688     1.07e-07  1.63e-05  1.35e-04  6.92e-05     1.1
   11    -423.5917992021208534    -2.76e-07  5.50e-06  4.93e-05  1.04e-05     1.1
   12    -423.5917992029532684    -8.32e-10  3.35e-06  3.07e-05  1.55e-05     0.9
                 **** Energy Check signals convergence ****

               *****************************************************
               *                     SUCCESS                       *
               *           SCF CONVERGED AFTER  12 CYCLES          *
               *****************************************************

Recomputing exchange energy using gridx3       ... done (    2.589 sec)
Old exchange energy                            :    -11.658317196 Eh
New exchange energy                            :    -11.658306813 Eh
Exchange energy change after final integration :      0.000010382 Eh
Total energy after final integration           :   -423.591788827 Eh
             **** ENERGY FILE WAS UPDATED (orca.en.tmp) ****

----------------
TOTAL SCF ENERGY
----------------

Total Energy       :       -423.59178882687547 Eh          -11526.51857 eV

Components:
Nuclear Repulsion  :        473.66464799781596 Eh           12889.07034 eV
Electronic Energy  :       -897.25644720690434 Eh          -24415.58919 eV
One Electron Energy:      -1511.12169013341781 Eh          -41119.71167 eV
Two Electron Energy:        613.86524292651347 Eh           16704.12248 eV

Virial components:
Potential Energy   :       -842.78613038163417 Eh          -22933.37652 eV
Kinetic Energy     :        419.19434155475875 Eh           11406.85795 eV
Virial Ratio       :          2.01049023528277

DFT components:
N(Alpha)           :       36.000006574370 electrons
N(Beta)            :       36.000006574370 electrons
N(Total)           :       72.000013148739 electrons
E(X)               :      -46.294931738951 Eh       
E(C)               :       -2.833406356181 Eh       
E(XC)              :      -49.128338095133 Eh       

---------------
SCF CONVERGENCE
---------------

  Last Energy change         ...    8.3242e-10  Tolerance :   1.0000e-08
  Last MAX-Density change    ...    3.0656e-05  Tolerance :   1.0000e-07
  Last RMS-Density change    ...    3.3488e-06  Tolerance :   5.0000e-09
  Last DIIS Error            ...    1.4177e-03  Tolerance :   5.0000e-07
  Last Orbital Gradient      ...    1.5541e-05  Tolerance :   1.0000e-05
  Last Orbital Rotation      ...    1.7848e-05  Tolerance :   1.0000e-05


----------------
ORBITAL ENERGIES
----------------

  NO   OCC          E(Eh)            E(eV) 
   0   2.0000     -19.156890      -521.2855 
   1   2.0000     -10.247457      -278.8475 
   2   2.0000     -10.245283      -278.7883 
   3   2.0000     -10.195156      -277.4243 
   4   2.0000     -10.191415      -277.3225 
   5   2.0000     -10.188097      -277.2322 
   6   2.0000     -10.186404      -277.1861 
   7   2.0000     -10.184538      -277.1354 
   8   2.0000     -10.179165      -276.9892 
   9   2.0000     -10.178802      -276.9793 
  10   2.0000      -1.051007       -28.5994 
  11   2.0000      -0.840221       -22.8636 
  12   2.0000      -0.789041       -21.4709 
  13   2.0000      -0.736397       -20.0384 
  14   2.0000      -0.731282       -19.8992 
  15   2.0000      -0.679450       -18.4888 
  16   2.0000      -0.602294       -16.3892 
  17   2.0000      -0.589189       -16.0326 
  18   2.0000      -0.559757       -15.2318 
  19   2.0000      -0.535739       -14.5782 
  20   2.0000      -0.492043       -13.3892 
  21   2.0000      -0.479981       -13.0610 
  22   2.0000      -0.461808       -12.5664 
  23   2.0000      -0.455679       -12.3997 
  24   2.0000      -0.436705       -11.8834 
  25   2.0000      -0.417331       -11.3561 
  26   2.0000      -0.403250       -10.9730 
  27   2.0000      -0.386703       -10.5227 
  28   2.0000      -0.364656        -9.9228 
  29   2.0000      -0.361534        -9.8378 
  30   2.0000      -0.355544        -9.6749 
  31   2.0000      -0.329052        -8.9540 
  32   2.0000      -0.312961        -8.5161 
  33   2.0000      -0.274150        -7.4600 
  34   2.0000      -0.252016        -6.8577 
  35   2.0000      -0.218626        -5.9491 
  36   0.0000      -0.005409        -0.1472 
  37   0.0000      -0.003088        -0.0840 
  38   0.0000       0.013018         0.3542 
  39   0.0000       0.062153         1.6913 
  40   0.0000       0.079517         2.1638 
  41   0.0000       0.087457         2.3798 
  42   0.0000       0.094387         2.5684 
  43   0.0000       0.111870         3.0441 
  44   0.0000       0.122285         3.3275 
  45   0.0000       0.133128         3.6226 
  46   0.0000       0.149649         4.0721 
*Only the first 10 virtual orbitals were printed.

                    ********************************
                    * MULLIKEN POPULATION ANALYSIS *
                    ********************************

-----------------------
MULLIKEN ATOMIC CHARGES
-----------------------
   0 C :    0.220244
   1 C :   -0.077630
   2 C :    0.016333
   3 C :    0.019103
   4 C :    0.018156
   5 C :   -0.015557
   6 O :   -0.325824
   7 C :    0.285645
   8 C :   -0.083963
   9 C :   -0.026719
  10 H :   -0.027282
  11 H :   -0.019219
  12 H :   -0.022568
  13 H :   -0.016343
  14 H :   -0.022105
  15 H :    0.005255
  16 H :    0.010779
  17 H :    0.027805
  18 H :    0.019380
  19 H :    0.014508
Sum of atomic charges:   -0.0000000

--------------------------------
MULLIKEN REDUCED ORBITAL CHARGES
--------------------------------
  0 C s       :     2.958184  s :     2.958184
      pz      :     0.958927  p :     2.747243
      px      :     0.804652
      py      :     0.983664
      dz2     :     0.007934  d :     0.074329
      dxz     :     0.016231
      dyz     :     0.007676
      dx2y2   :     0.021540
      dxy     :     0.020949

  1 C s       :     3.223809  s :     3.223809
      pz      :     1.063847  p :     2.821284
      px      :     0.895200
      py      :     0.862237
      dz2     :     0.003832  d :     0.032537
      dxz     :     0.004983
      dyz     :     0.004149
      dx2y2   :     0.008267
      dxy     :     0.011306

  2 C s       :     3.157043  s :     3.157043
      pz      :     0.961535  p :     2.790908
      px      :     0.948289
      py      :     0.881085
      dz2     :     0.002830  d :     0.035717
      dxz     :     0.006866
      dyz     :     0.004333
      dx2y2   :     0.011184
      dxy     :     0.010504

  3 C s       :     3.154261  s :     3.154261
      pz      :     1.003798  p :     2.792295
      px      :     0.829929
      py      :     0.958568
      dz2     :     0.003230  d :     0.034341
      dxz     :     0.003695
      dyz     :     0.006106
      dx2y2   :     0.011466
      dxy     :     0.009844

  4 C s       :     3.163445  s :     3.163445
      pz      :     0.973700  p :     2.782757
      px      :     0.921030
      py      :     0.888027
      dz2     :     0.004206  d :     0.035642
      dxz     :     0.005929
      dyz     :     0.004165
      dx2y2   :     0.009717
      dxy     :     0.011624

  5 C s       :     3.236113  s :     3.236113
      pz      :     0.998807  p :     2.747219
      px      :     0.884190
      py      :     0.864222
      dz2     :     0.002901  d :     0.032225
      dxz     :     0.005811
      dyz     :     0.003762
      dx2y2   :     0.008366
      dxy     :     0.011385

  6 O s       :     3.734239  s :     3.734239
      pz      :     1.726776  p :     4.575735
      px      :     1.204965
      py      :     1.643994
      dz2     :     0.002011  d :     0.015850
      dxz     :     0.004103
      dyz     :     0.001993
      dx2y2   :     0.003163
      dxy     :     0.004580

  7 C s       :     2.935603  s :     2.935603
      pz      :     0.987567  p :     2.717530
      px      :     0.824778
      py      :     0.905185
      dz2     :     0.008207  d :     0.061222
      dxz     :     0.014456
      dyz     :     0.010173
      dx2y2   :     0.010848
      dxy     :     0.017537

  8 C s       :     3.167100  s :     3.167100
      pz      :     0.952499  p :     2.882502
      px      :     0.948124
      py      :     0.981878
      dz2     :     0.006414  d :     0.034361
      dxz     :     0.010586
      dyz     :     0.003273
      dx2y2   :     0.005120
      dxy     :     0.008967

  9 C s       :     3.109916  s :     3.109916
      pz      :     0.936590  p :     2.890048
      px      :     0.976535
      py      :     0.976922
      dz2     :     0.004100  d :     0.026756
      dxz     :     0.009588
      dyz     :     0.002084
      dx2y2   :     0.004415
      dxy     :     0.006569

 10 H s       :     1.003508  s :     1.003508
      pz      :     0.005151  p :     0.023774
      px      :     0.007566
      py      :     0.011057

 11 H s       :     0.996475  s :     0.996475
      pz      :     0.005943  p :     0.022743
      px      :     0.004930
      py      :     0.011871

 12 H s       :     0.999695  s :     0.999695
      pz      :     0.005585  p :     0.022872
      px      :     0.013851
      py      :     0.003436

 13 H s       :     0.993657  s :     0.993657
      pz      :     0.004533  p :     0.022686
      px      :     0.007432
      py      :     0.010721

 14 H s       :     0.999232  s :     0.999232
      pz      :     0.006132  p :     0.022874
      px      :     0.005162
      py      :     0.011580

 15 H s       :     0.973794  s :     0.973794
      pz      :     0.011491  p :     0.020951
      px      :     0.004775
      py      :     0.004685

 16 H s       :     0.966627  s :     0.966627
      pz      :     0.011786  p :     0.022594
      px      :     0.005128
      py      :     0.005680

 17 H s       :     0.948905  s :     0.948905
      pz      :     0.008378  p :     0.023290
      px      :     0.008090
      py      :     0.006822

 18 H s       :     0.957288  s :     0.957288
      pz      :     0.011819  p :     0.023332
      px      :     0.005740
      py      :     0.005772

 19 H s       :     0.962473  s :     0.962473
      pz      :     0.007076  p :     0.023018
      px      :     0.005085
      py      :     0.010857



                     *******************************
                     * LOEWDIN POPULATION ANALYSIS *
                     *******************************

----------------------
LOEWDIN ATOMIC CHARGES
----------------------
   0 C :    0.055020
   1 C :   -0.079829
   2 C :   -0.015910
   3 C :   -0.051443
   4 C :   -0.016520
   5 C :   -0.049301
   6 O :   -0.104800
   7 C :    0.095056
   8 C :   -0.038469
   9 C :   -0.046468
  10 H :    0.023305
  11 H :    0.026398
  12 H :    0.024430
  13 H :    0.027438
  14 H :    0.030092
  15 H :    0.022348
  16 H :    0.028827
  17 H :    0.027222
  18 H :    0.022913
  19 H :    0.019691

-------------------------------
LOEWDIN REDUCED ORBITAL CHARGES
-------------------------------
  0 C s       :     2.840625  s :     2.840625
      pz      :     0.963912  p :     2.931556
      px      :     0.879464
      py      :     1.088180
      dz2     :     0.016622  d :     0.172799
      dxz     :     0.034530
      dyz     :     0.017240
      dx2y2   :     0.051042
      dxy     :     0.053366

  1 C s       :     2.860921  s :     2.860921
      pz      :     1.048073  p :     3.132357
      px      :     1.052747
      py      :     1.031538
      dz2     :     0.008479  d :     0.086550
      dxz     :     0.011919
      dyz     :     0.009767
      dx2y2   :     0.024979
      dxy     :     0.031406

  2 C s       :     2.861121  s :     2.861121
      pz      :     0.971566  p :     3.062748
      px      :     1.052828
      py      :     1.038354
      dz2     :     0.006503  d :     0.092042
      dxz     :     0.015946
      dyz     :     0.009479
      dx2y2   :     0.030774
      dxy     :     0.029340

  3 C s       :     2.859889  s :     2.859889
      pz      :     1.011373  p :     3.102072
      px      :     1.032550
      py      :     1.058150
      dz2     :     0.007368  d :     0.089482
      dxz     :     0.008003
      dyz     :     0.014668
      dx2y2   :     0.031432
      dxy     :     0.028012

  4 C s       :     2.861930  s :     2.861930
      pz      :     0.973730  p :     3.062923
      px      :     1.050066
      py      :     1.039127
      dz2     :     0.009371  d :     0.091668
      dxz     :     0.013873
      dyz     :     0.009691
      dx2y2   :     0.027151
      dxy     :     0.031582

  5 C s       :     2.864971  s :     2.864971
      pz      :     1.017055  p :     3.098450
      px      :     1.053708
      py      :     1.027688
      dz2     :     0.006769  d :     0.085879
      dxz     :     0.013538
      dyz     :     0.008244
      dx2y2   :     0.025081
      dxy     :     0.032247

  6 O s       :     3.435465  s :     3.435465
      pz      :     1.720376  p :     4.639346
      px      :     1.261591
      py      :     1.657379
      dz2     :     0.003332  d :     0.029989
      dxz     :     0.007694
      dyz     :     0.002476
      dx2y2   :     0.007257
      dxy     :     0.009230

  7 C s       :     2.840786  s :     2.840786
      pz      :     1.056409  p :     2.923502
      px      :     0.898284
      py      :     0.968808
      dz2     :     0.017073  d :     0.140656
      dxz     :     0.035050
      dyz     :     0.025111
      dx2y2   :     0.022551
      dxy     :     0.040872

  8 C s       :     2.886589  s :     2.886589
      pz      :     1.016386  p :     3.064939
      px      :     1.075262
      py      :     0.973292
      dz2     :     0.015670  d :     0.086941
      dxz     :     0.028843
      dyz     :     0.007550
      dx2y2   :     0.014643
      dxy     :     0.020235

  9 C s       :     2.887490  s :     2.887490
      pz      :     1.029339  p :     3.089388
      px      :     1.069212
      py      :     0.990837
      dz2     :     0.011253  d :     0.069591
      dxz     :     0.025522
      dyz     :     0.005028
      dx2y2   :     0.012493
      dxy     :     0.015295

 10 H s       :     0.905939  s :     0.905939
      pz      :     0.016175  p :     0.070756
      px      :     0.022559
      py      :     0.032022

 11 H s       :     0.907540  s :     0.907540
      pz      :     0.017375  p :     0.066063
      px      :     0.014769
      py      :     0.033918

 12 H s       :     0.908487  s :     0.908487
      pz      :     0.016768  p :     0.067083
      px      :     0.039033
      py      :     0.011282

 13 H s       :     0.906543  s :     0.906543
      pz      :     0.013655  p :     0.066018
      px      :     0.021537
      py      :     0.030826

 14 H s       :     0.901492  s :     0.901492
      pz      :     0.018847  p :     0.068416
      px      :     0.015500
      py      :     0.034069

 15 H s       :     0.914784  s :     0.914784
      pz      :     0.033740  p :     0.062868
      px      :     0.015645
      py      :     0.013483

 16 H s       :     0.904578  s :     0.904578
      pz      :     0.034518  p :     0.066594
      px      :     0.014477
      py      :     0.017599

 17 H s       :     0.905773  s :     0.905773
      pz      :     0.024646  p :     0.067006
      px      :     0.021858
      py      :     0.020503

 18 H s       :     0.910219  s :     0.910219
      pz      :     0.034375  p :     0.066868
      px      :     0.014801
      py      :     0.017692

 19 H s       :     0.912597  s :     0.912597
      pz      :     0.019662  p :     0.067711
      px      :     0.014470
      py      :     0.033579



                      *****************************
                      * MAYER POPULATION ANALYSIS *
                      *****************************

  NA   - Mulliken gross atomic population
  ZA   - Total nuclear charge
  QA   - Mulliken gross atomic charge
  VA   - Mayer's total valence
  BVA  - Mayer's bonded valence
  FA   - Mayer's free valence

  ATOM       NA         ZA         QA         VA         BVA        FA
  0 C      5.7798     6.0000     0.2202     3.9230     3.9230     0.0000
  1 C      6.0776     6.0000    -0.0776     3.8151     3.8151    -0.0000
  2 C      5.9837     6.0000     0.0163     3.8714     3.8714    -0.0000
  3 C      5.9809     6.0000     0.0191     3.8161     3.8161    -0.0000
  4 C      5.9818     6.0000     0.0182     3.8315     3.8315    -0.0000
  5 C      6.0156     6.0000    -0.0156     3.8381     3.8381    -0.0000
  6 O      8.3258     8.0000    -0.3258     2.1610     2.1610    -0.0000
  7 C      5.7144     6.0000     0.2856     3.8935     3.8935    -0.0000
  8 C      6.0840     6.0000    -0.0840     4.1023     4.1023     0.0000
  9 C      6.0267     6.0000    -0.0267     3.9547     3.9547    -0.0000
 10 H      1.0273     1.0000    -0.0273     0.9890     0.9890     0.0000
 11 H      1.0192     1.0000    -0.0192     0.9768     0.9768    -0.0000
 12 H      1.0226     1.0000    -0.0226     0.9779     0.9779    -0.0000
 13 H      1.0163     1.0000    -0.0163     0.9776     0.9776    -0.0000
 14 H      1.0221     1.0000    -0.0221     0.9966     0.9966    -0.0000
 15 H      0.9947     1.0000     0.0053     0.9946     0.9946     0.0000
 16 H      0.9892     1.0000     0.0108     0.9856     0.9856     0.0000
 17 H      0.9722     1.0000     0.0278     0.9752     0.9752    -0.0000
 18 H      0.9806     1.0000     0.0194     0.9851     0.9851    -0.0000
 19 H      0.9855     1.0000     0.0145     0.9895     0.9895    -0.0000

  Mayer bond orders larger than 0.100000
B(  0-C ,  1-C ) :   1.3259 B(  0-C ,  5-C ) :   1.3603 B(  0-C ,  6-O ) :   1.0940 
B(  1-C ,  2-C ) :   1.3749 B(  1-C , 10-H ) :   0.9826 B(  2-C ,  3-C ) :   1.3993 
B(  2-C , 11-H ) :   0.9777 B(  3-C ,  4-C ) :   1.3593 B(  3-C , 12-H ) :   0.9874 
B(  4-C ,  5-C ) :   1.3970 B(  4-C , 13-H ) :   0.9829 B(  5-C , 14-H ) :   0.9870 
B(  6-O ,  7-C ) :   0.9240 B(  7-C ,  8-C ) :   1.0520 B(  7-C , 15-H ) :   0.9420 
B(  7-C , 19-H ) :   0.9216 B(  8-C ,  9-C ) :   2.0077 B(  8-C , 16-H ) :   0.9589 
B(  9-C , 17-H ) :   0.9508 B(  9-C , 18-H ) :   0.9538 

-------
TIMINGS
-------

Total SCF time: 0 days 0 hours 0 min 17 sec 

Total time                  ....      17.380 sec
Sum of individual times     ....      16.428 sec  ( 94.5%)

SCF preparation             ....       0.207 sec  (  1.2%)
Fock matrix formation       ....      15.819 sec  ( 91.0%)
  Startup                   ....       0.007 sec  (  0.0% of F)
  Split-RI-J                ....       1.522 sec  (  9.6% of F)
  Chain of spheres X        ....      12.441 sec  ( 78.6% of F)
  XC integration            ....       2.551 sec  ( 16.1% of F)
    XC Preparation          ....       0.000 sec  (  0.0% of XC)
    Basis function eval.    ....       0.818 sec  ( 32.1% of XC)
    Density eval.           ....       0.504 sec  ( 19.8% of XC)
    XC-Functional eval.     ....       0.132 sec  (  5.2% of XC)
    XC-Potential eval.      ....       0.581 sec  ( 22.8% of XC)
Diagonalization             ....       0.000 sec  (  0.0%)
Density matrix formation    ....       0.047 sec  (  0.3%)
Total Energy calculation    ....       0.026 sec  (  0.1%)
Population analysis         ....       0.024 sec  (  0.1%)
Orbital Transformation      ....       0.035 sec  (  0.2%)
Orbital Orthonormalization  ....       0.000 sec  (  0.0%)
DIIS solution               ....       0.161 sec  (  0.9%)
SOSCF solution              ....       0.110 sec  (  0.6%)
Finished LeanSCF after  17.4 sec

Maximum memory used throughout the entire LEANSCF-calculation: 16.9 MB


-------------------------------------------------------------------------------
                          DFT DISPERSION CORRECTION                            
                                                                               
                              DFTD3 V3.1  Rev 1                                
                          USING Becke-Johnson damping                          
-------------------------------------------------------------------------------
The B3LYP functional is recognized
Active option DFTDOPT                   ...         4   

molecular C6(AA) [au] = 4255.034764 


            DFT-D V3
 parameters
 s6 scaling factor         :     1.0000 
 a1 scaling factor         :     0.3981 
 s8 scaling factor         :     1.9889 
 a2 scaling factor         :     4.4211 
 ad hoc parameters k1-k3   :    16.0000     1.3333    -4.0000 

 Edisp/kcal,au: -20.569518177508  -0.032779610243 
 E6   /kcal   :  -9.706188192 
 E8   /kcal   : -10.863329985 
 % E8         :  52.812758625 

-------------------------   ----------------
Dispersion correction           -0.032779610
-------------------------   ----------------


-------------------------   --------------------
FINAL SINGLE POINT ENERGY      -423.624568437118
-------------------------   --------------------



           ************************************************************
           *        Program running with 6 parallel MPI-processes     *
           *              working on a common directory               *
           ************************************************************
------------------------------------------------------------------------------
                         ORCA SCF GRADIENT CALCULATION
------------------------------------------------------------------------------

Nuc. rep. gradient        (SHARK) ... done (  0.0 sec)
HCore & Overlap gradient  (SHARK) ... done (  0.1 sec)
Split-RIJ-J gradient      (SHARK) ... done (  0.5 sec)
done (  8.0 sec)
XC gradient                       ... done (  1.5 sec)
Dispersion correction             ... done (  0.0 sec)

-------------------
DISPERSION GRADIENT
-------------------

   1   C   :    0.000256723   -0.000056498    0.000132600
   2   C   :    0.000292235    0.000300275   -0.000059236
   3   C   :    0.000261914    0.000239762   -0.000119163
   4   C   :    0.000334377    0.000010701   -0.000083229
   5   C   :    0.000247395   -0.000232664    0.000019210
   6   C   :    0.000202773   -0.000356675    0.000130414
   7   O   :   -0.000112583   -0.000082376    0.000233621
   8   C   :   -0.000283315    0.000130396    0.000116267
   9   C   :   -0.000520304   -0.000073398   -0.000162160
  10   C   :   -0.000466640   -0.000112429   -0.000086153
  11   H   :    0.000021153    0.000320703   -0.000058773
  12   H   :    0.000118180    0.000237475   -0.000101296
  13   H   :    0.000265741    0.000017596   -0.000073888
  14   H   :    0.000169835   -0.000219181    0.000025626
  15   H   :   -0.000012602   -0.000286199    0.000111406
  16   H   :   -0.000136387    0.000120259    0.000200078
  17   H   :   -0.000167110   -0.000096805   -0.000231486
  18   H   :   -0.000151371   -0.000055296   -0.000044905
  19   H   :   -0.000214739   -0.000021005    0.000044354
  20   H   :   -0.000105274    0.000215359    0.000006712

Difference to translation invariance:
           :    0.0000000000    0.0000000000    0.0000000000

Difference to rotation invariance:
           :    0.0000000000   -0.0000000000    0.0000000000

Norm of the Dispersion gradient    ...    0.0015115413
RMS gradient                       ...    0.0001951391
MAX gradient                       ...    0.0005203040

------------------
CARTESIAN GRADIENT
------------------

   1   C   :   -0.000004437    0.000040503   -0.000001409
   2   C   :   -0.000101473    0.000088838    0.000014396
   3   C   :    0.000054309    0.000118316   -0.000005375
   4   C   :    0.000107420    0.000041779   -0.000038250
   5   C   :    0.000056722   -0.000110554   -0.000017687
   6   C   :   -0.000086190   -0.000094983   -0.000031365
   7   O   :   -0.000147310   -0.000023163    0.000038028
   8   C   :   -0.000013255   -0.000089443   -0.000075486
   9   C   :    0.000007771    0.000069753    0.000115195
  10   C   :    0.000045384   -0.000025126    0.000122248
  11   H   :    0.000002671    0.000040990   -0.000062980
  12   H   :    0.000042319   -0.000038966   -0.000017480
  13   H   :   -0.000020130    0.000014792    0.000027544
  14   H   :    0.000004762   -0.000028540    0.000056233
  15   H   :   -0.000024710    0.000028314   -0.000006633
  16   H   :    0.000045301   -0.000072793   -0.000018262
  17   H   :   -0.000000384    0.000042876   -0.000026436
  18   H   :    0.000010719   -0.000016998   -0.000024906
  19   H   :    0.000015895   -0.000040228   -0.000056782
  20   H   :    0.000004617    0.000054631    0.000009406

Difference to translation invariance:
           :   -0.0000000000   -0.0000000000    0.0000000000

Difference to rotation invariance:
           :    0.0001734956    0.0000520208    0.0002671170

Norm of the Cartesian gradient     ...    0.0004403410
RMS gradient                       ...    0.0000568478
MAX gradient                       ...    0.0001473102

-------
TIMINGS
-------

Total SCF gradient time     ....       10.148 sec

Densities                   ....       0.001 sec  (  0.0%)
One electron gradient       ....       0.087 sec  (  0.9%)
RI-J Coulomb gradient       ....       0.492 sec  (  4.9%)
COSX gradient               ....       7.989 sec  ( 78.7%)
XC gradient                 ....       1.528 sec  ( 15.1%)

Maximum memory used throughout the entire SCFGRAD-calculation: 30.9 MB


           ************************************************************
           *        Program running with 6 parallel MPI-processes     *
           *              working on a common directory               *
           ************************************************************

------------------------------------------------------------------------------
                              ORCA PROPERTY CALCULATIONS
------------------------------------------------------------------------------

GBWName                                 ... orca.gbw
Number of atoms                         ...     20
Number of basis functions               ...    190
Max core memory                         ...   4096 MB

Electric properties:
Dipole moment                           ... YES
Quadrupole moment                       ...  NO
Static polarizability (Dipole/Dipole)   ...  NO
Static polarizability (Dipole/Quad.)    ...  NO
Static polarizability (Quad./Quad.)     ...  NO
Static polarizability (Velocity)        ...  NO
Static hyperpolarizability              ...  NO

Atomic electric properties:
Dipole moment                           ...  NO
Quadrupole moment                       ...  NO
Static polarizability                   ...  NO

Choice of electric origin               ... Center of mass
Position of electric origin             ...     0.384849    -0.134612     0.155673

General magnetic properties:
Magnetizability                         ...  NO

EPR properties:
g-Tensor (aka g-matrix)                 ...  NO
Zero-Field splitting spin-orbit         ...  NO
Zero-field splitting spin-spin          ...  NO
Hyperfine couplings                     ...  NO (   0 nuclei)
Quadrupole couplings                    ...  NO (   0 nuclei)
Contact density                         ...  NO (   0 nuclei)

NMR properties:
Chemical shifts                         ...  NO (   0 nuclei)
Spin-rotation constants                 ...  NO (   0 nuclei)
Spin-spin couplings                     ...  NO (   0 nuclei,    0 pairs)

Choice of magnetic origin               ... GIAO
Position of magnetic origin             ...     0.000000     0.000000     0.000000

Properties with geometric perturbations:
SCF Hessian                             ...  NO
IR spectrum                             ...  NO
VCD spectrum                            ...  NO
X-ray spectroscopy properties:
SCF XES/XAS/RIXS spectra                ...  NO

SCF SOC stabilization energy            ...  NO
Diagonal Born-Oppenheimer correction    ...  NO

-------------
DIPOLE MOMENT
-------------

Method             : SCF
Type of density    : Electron Density
Multiplicity       :   1
Irrep              :   0
Energy             :  -423.5917888268754723 Eh
Basis              : AO
                                X                 Y                 Z
Electronic contribution:      4.154266425      -1.000349194       1.226385825
Nuclear contribution   :     -4.478746445       1.360569139      -1.431101266
                        -----------------------------------------
Total Dipole Moment    :     -0.324480020       0.360219945      -0.204715441
                        -----------------------------------------
Magnitude (a.u.)       :      0.526264291
Magnitude (Debye)      :      1.337657522



--------------------
Rotational spectrum 
--------------------
 
Rotational constants in cm-1:             0.136632             0.021492             0.019664 
Rotational constants in MHz :          4096.117998           644.328872           589.504766 

Dipole components along the rotational axes: 
x,y,z [a.u.] :    -0.318005     0.407221    -0.099989 
x,y,z [Debye]:    -0.808304     1.035075    -0.254151 

 

Dipole moment calculation done in   0.0 sec 

Maximum memory used throughout the entire PROP-calculation: 9.3 MB

--------------------------------
SUGGESTED CITATIONS FOR THIS RUN
--------------------------------

Below you find a list of papers that are relevant to this ORCA run
We neither can nor want to force you to cite these papers, but we appreciate if you do
You receive ORCA, which is the product of decades of hard work by many enthusiastic individuals, for free
The only thing we kindly ask in return is that you cite our papers,
We deeply appreciate it, if you show your appreciation for ORCA by not just citing the generic ORCA reference.

Please note that relegating all ORCA citations to the supporting information does *not* help us.
SI sections are not indexed - citations you put there will not count into any citation statistics
But we need these citations in order to attract the funding resources that allow us to do what we are doing

Therefore, if you are a happy ORCA user, please consider citing a few of the papers listed below in the main body of your paper

In addition to the list printed below, the program has created the file orca.bibtex that contains the list in bibtex format
You can import this file easily into all common literature databanks and citation aid programs


List of essential papers. We consider these as the minimum necessary citations

  1. Neese, F.
     Software update: the ORCA program system, version 6.0
     WIRES Comput. Molec. Sci. 2025 15(1), e70019
     doi.org/10.1002/wcms.7019

List of papers to cite with high priority. The work reported in these papers was absolutely
necessary for this run to complete.
Our perspective: the developers of density functionals and basis sets usually get cited in chemistry papers
Good! But without the algorithms to do something with them, the functionals or basis sets would not do anything.
Hence, in our opinion, the algorithm design and method developments papers are equally worthy of getting cited

  1. Neese, F.
     An improvement of the resolution of the identity approximation for the formation of the Coulomb matrix
     J. Comp. Chem. 2003 24(14), 1740-1747
     doi.org/10.1002/jcc.10318
  2. Neese, F.; Wennmohs, F.; Hansen, A.; Becker, U.
     Efficient, approximate and parallel Hartree-Fock and hybrid DFT calculations. A 'chain-of-spheres' algorithm for the Hartree-Fock exchange
     Chem. Phys. 2009 356(1-3), 98-109
     doi.org/10.1016/j.chemphys.2008.10.036
  3. Grimme, S.; Antony, J.; Ehrlich, S.; Krieg, H.
     A consistent and accurate ab initio parametrization of density functional dispersion correction (DFT-D) for the 94 elements H-Pu
     J. Chem. Phys. 2010 132 , 154104
     doi.org/10.1063/1.3382344
  4. Grimme, S.; Ehrlich, S.; Goerigk, L.
     Effect of the damping function in dispersion corrected density functional theory
     J. Comput. Chem. 2011 32(7), 1456-1465
     doi.org/10.1002/jcc.21759
  5. Helmich-Paris, B.; de Souza, B.; Neese, F.; Izsák, R.
     An improved chain of spheres for exchange algorithm
     J. Chem. Phys. 2021 155(10), 104109
     doi.org/10.1063/5.0058766
  6. Neese, F.
     The SHARK Integral Generation and Digestion System
     J. Comp. Chem. 2022 44(3), 381
     doi.org/10.1002/jcc.26942

List of suggested additional citations. These are papers that are important in the 'surrounding' of 
of this run, or papers that preceded the highly important papers. If you like your results we are grateful for a citation.

  1. Izsak, R.; Neese, F.
     An overlap fitted chain of spheres exchange method
     J. Chem. Phys. 2011 135 , 144105
     doi.org/10.1063/1.3646921
  2. Izsak, R.; Hansen, A.; Neese, F.
     The resolution of identity and chain of spheres approximations for the LPNO-CCSD singles Fock term
     Molec. Phys. 2012 110 , 2413-2417
     doi.org/10.1080/00268976.2012.687466
  3. Neese, F.
     The ORCA program system
     WIRES Comput. Molec. Sci. 2012 2(1), 73-78
     doi.org/10.1002/wcms.81
  4. Izsak, R.; Neese, F.; Klopper, W.
     Robust fitting techniques in the chain of spheres approximation to the Fock exchange: The role of the complementary space
     J. Chem. Phys. 2013 139 , 
     doi.org/10.1063/1.4819264
  5. Neese, F.
     Software update: the ORCA program system, version 4.0
     WIRES Comput. Molec. Sci. 2018 8(1), 1-6
     doi.org/10.1002/wcms.1327
  6. Neese, F.; Wennmohs, F.; Becker, U.; Riplinger, C.
     The ORCA quantum chemistry program package
     J. Chem. Phys. 2020 152(22), 224108
     doi.org/10.1063/5.0004608
  7. Neese, F.
     Software update: The ORCA program system—Version 5.0
     WIRES Comput. Molec. Sci. 2022 12(1), e1606
     doi.org/10.1002/wcms.1606

List of optional additional citations

  1. Neese, F.
     Approximate second-order SCF convergence for spin unrestricted wavefunctions
     Chem. Phys. Lett. 2000 325(1-3), 93-98
     doi.org/10.1016/s0009-2614(00)00662-x

Timings for individual modules:

Sum of individual times          ...       31.628 sec (=   0.527 min)
Startup calculation              ...        2.006 sec (=   0.033 min)   6.3 %
SCF iterations                   ...       18.532 sec (=   0.309 min)  58.6 %
Property calculations            ...        0.467 sec (=   0.008 min)   1.5 %
SCF Gradient evaluation          ...       10.624 sec (=   0.177 min)  33.6 %
                             ****ORCA TERMINATED NORMALLY****
TOTAL RUN TIME: 0 days 0 hours 0 minutes 32 seconds 204 msec
