
                                 *****************
                                 * O   R   C   A *
                                 *****************

                                            #,                                       
                                            ###                                      
                                            ####                                     
                                            #####                                    
                                            ######                                   
                                           ########,                                 
                                     ,,################,,,,,                         
                               ,,#################################,,                 
                          ,,##########################################,,             
                       ,#########################################, ''#####,          
                    ,#############################################,,   '####,        
                  ,##################################################,,,,####,       
                ,###########''''           ''''###############################       
              ,#####''   ,,,,##########,,,,          '''####'''          '####       
            ,##' ,,,,###########################,,,                        '##       
           ' ,,###''''                  '''############,,,                           
         ,,##''                                '''############,,,,        ,,,,,,###''
      ,#''                                            '''#######################'''  
     '                                                          ''''####''''         
             ,#######,   #######,   ,#######,      ##                                
            ,#'     '#,  ##    ##  ,#'     '#,    #''#        ,####,    ,#,          
            ##       ##  ##   ,#'  ##            #'  '#       #'       ,# #          
            ##       ##  #######   ##           ,######,      #####,      #          
            '#,     ,#'  ##    ##  '#,     ,#' ,#      #,     #,   #      #          
             '#######'   ##     ##  '#######'  #'      '#     '####' #    #          



                #########################################################
                #                        -***-                          #
                #          Department of theory and spectroscopy        #
                #                                                       #
                #                      Frank Neese                      #
                #                                                       #
                #     Directorship, Architecture, Infrastructure        #
                #                    SHARK, DRIVERS                     #
                #        Core code/Algorithms in most modules           #
                #                                                       #
                #        Max Planck Institute fuer Kohlenforschung      #
                #                Kaiser Wilhelm Platz 1                 #
                #                 D-45470 Muelheim/Ruhr                 #
                #                      Germany                          #
                #                                                       #
                #                  All rights reserved                  #
                #                        -***-                          #
                #########################################################


                         Program Version 6.1.0  -  RELEASE   -
                                (GIT: $679e74b$)
                          ($2025-06-10 18:02:51 +0200$)


 With contributions from (in alphabetic order):
[Max-Planck-Institut fuer Kohlenforschung]                               
  Daniel Aravena         : Magnetic Suceptibility                        
  Michael Atanasov       : Ab Initio Ligand Field Theory (pilot matlab implementation)
  Alexander A. Auer      : GIAO ZORA, VPT2 properties, NMR spectrum      
  Ute Becker             : All parallelization in ORCA, NUMFREQ, NUMCALC 
  Giovanni Bistoni       : ED, misc. LED, open-shell LED, HFLD           
  Dmytro Bykov           : pre 5.0 version of the SCF Hessian            
  Marcos Casanova-Páez   : Triplet and SCS-CIS(D). UHF-(DLPNO)-IP/EA/STEOM-CCSD. UHF-CVS-IP/STEOM-CCSD   
  Vijay G. Chilkuri      : MRCI spin determinant printing, contributions to CSF-ICE 
  Pauline Colinet        : FMM embedding                                 
  Dipayan Datta          : RHF DLPNO-CCSD density                        
  Achintya Kumar Dutta   : EOM-CC, STEOM-CC                              
  Nicolas Foglia         : Exact transition moments, OPA infrastructure, MCD improvements    
  Dmitry Ganyushin       : Spin-Orbit,Spin-Spin,Magnetic field MRCI      
  Miquel Garcia-Rates    : C-PCM and meta-GGA Hessian, CCSD/C-PCM, Gaussian charge scheme 
  Tiago L. C. Gouveia    : GS-ROHF, GS-ROCIS                             
  Yang Guo               : DLPNO-NEVPT2, F12-NEVPT2, CIM, IAO-localization        
  Andreas Hansen         : Spin unrestricted coupled pair/coupled cluster methods 
  Ingolf Harden          : AUTO-CI MPn and infrastructure                
  Benjamin Helmich-Paris : MC-RPA, TRAH-(SCF,CASSCF), AVAS, COSX integrals, SCF dyn. polar., MC-PDFT, srDFT 
  Lee Huntington         : MR-EOM, pCC                                   
  Robert Izsak           : Overlap fitted RIJCOSX, COSX-SCS-MP3, EOM     
  Riya Kayal             : Wick's Theorem for AUTO-CI, AUTO-CI UHF-CCSDT 
  Emily Kempfer          : AUTO-CI RHF CISDT and CCSDT, approximate NEVPT4
  Christian Kollmar      : KDIIS, OOCD, Brueckner-CCSD(T), CCSD density, CASPT2, CASPT2-K, improved NEVPT2 
  Axel Koslowski         : Symmetry handling                             
  Simone Kossmann        : meta-GGA functionals, TD-DFT gradient, OOMP2, (MP2 Hessian; deprecated post 5.0) 
  Lucas Lang             : DCDCAS, Hyperfine gauge corrections, ICE-SOC+SSC
  Marvin Lechner         : AUTO-CI (C++ implementation), FIC-MRCC        
  Spencer Leger          : CASSCF response                               
  Dagmar Lenk            : GEPOL surface, SMD, ORCA-2-JSON               
  Dimitrios Liakos       : Extrapolation schemes; Compound Job, Property file
  Dimitrios Manganas     : Further ROCIS development; embedding schemes. LFT, Crystal Embedding 
  Dimitrios Pantazis     : SARC Basis sets                               
  Anastasios Papadopoulos: AUTO-CI, single reference methods and gradients 
  Taras Petrenko         : pre 6.0 DFT Hessian and TD-DFT gradient,  ECA, NRVS 
  Petra Pikulova         : Analytic Raman intensities                    
  Peter Pinski           : DLPNO-MP2, DLPNO-MP2 Gradient                 
  Shashank Vittal Rao    : ES-AILFT, MagRelax                            
  Christoph Reimann      : Effective Core Potentials                     
  Marius Retegan         : Local ZFS, SOC                                
  Christoph Riplinger    : Optimizer, TS searches, QM/MM, DLPNO-CCSD(T), (RO)-DLPNO pert. Triples 
  Michael Roemelt        : Original ROCIS implementation, recursive CI coupling coefficients
  Masaaki Saitow         : Open-shell DLPNO-CCSD energy and density      
  Barbara Sandhoefer     : DKH picture change effects                    
  Yorick L. A. Schmerwitz: GMF and freeze-and-release deltaSCF, NEB S-IDPP initial path                    
  Kantharuban Sivalingam : CASSCF convergence/infrastructure, NEVPT2, NEVPT3, NEVPT4(SD), FIC-MRCI and CEPA variants
  Bernardo de Souza      : ESD, SOC TD-DFT                               
  Georgi L. Stoychev     : AutoAux, RI-MP2 NMR, DLPNO-MP2 response, X2C  
  Van Anh Tran           : RI-MP2 g-tensors                              
  Willem Van den Heuvel  : Paramagnetic NMR                              
  Zikuan Wang            : NOTCH, Electric field optimization            
  Frank Wennmohs         : Technical directorship and infrastructure     
  Hang Xu                : AUTO-CI-Response properties                   
                                                                         
[FACCTs GmbH]                                                            
  Markus Bursch, Nicolas Foglia, Miquel Garcia-Rates, Ingolf Harden, Hagen Neugebauer, Anastasios Papadopoulos, 
  Christoph Riplinger, Bernardo de Souza, Georgi L. Stoychev                                                    
                                                                 
  APM, various basis sets, CI-OPT, improved COSX, DLPNO-Multilevel,           
  DOCKER, DRACO, updates on ESD, Fragmentator, GOAT, IRC, LR-CPCM, L-BFGS, MBIS, meta-GGA TD-DFT gradient, ML-optimized integration grids, 
  MM, NACMEs, nearIR, NEB, NEB-TS, NL-DFT gradient (VV10), 2- and 3-layer-ONIOM, interface openCOSMO-RS, QMMM,   
  Crystal-QMMM, RESP, rigid body optimization, SF, symmetry and pop. for TD-DFT, various functionals, SOLVATOR                                   
                                                                         
[Other institutions]                                                     
  V. Asgeirsson          : NEB                                           
  Christoph Bannwarth    : sTDA-DFT, sTD-DFT, PBEh-3c, B97-3c, D3        
  Giovanni Bistoni       : ETS/NOCV, ADLD/ADEX, COVALED                  
  Martin Brehm           : Molecular dynamics                            
  Ronald Cardenas        : ETS/NOCV                                      
  Martina Colucci        : COVALED                                       
  Sebastian Ehlert       : rSCAN, r2SCAN, r2SCAN-3c, D4, dhf basis sets  
  Marvin Friede          : D4 for Fr, Ra, Ac-Lr                          
  Lars Goerigk           : TD-DFT with DH, B97 family of functionals     
  Stefan Grimme          : VdW corrections, initial TS optimization, DFT functionals, gCP, sTDA/sTD-DF 
  Waldemar Hujo          : DFT-NL                                        
  H. Jonsson             : NEB                                           
  Holger Kruse           : gCP                                           
  Marcel Mueller         : wB97X-3c, vDZP basis set                      
  Hagen Neugebauer       : wr2SCAN, Native XTB                           
  Gianluca Regni         : ADLD/ADEX                                     
  Tobias Risthaus        : pre 6.0 range-separated hybrid DFT and stability analysis
  Lukas Wittmann         : regularized MP2, r2SCAN double-hybrids, wr2SCAN        
                                                                         
We gratefully acknowledge several colleagues who have allowed us to      
interface, adapt or use parts of their codes:                            
  Ed Valeev, F. Pavosevic, A. Kumar             : LibInt (2-el integral package), F12 methods 
  Garnet Chan, S. Sharma, J. Yang, R. Olivares  : DMRG                   
  Ulf Ekstrom                                   : XCFun DFT Library      
  Mihaly Kallay                                 : mrcc  (arbitrary order and MRCC methods)
  Frank Weinhold                                : gennbo (NPA and NBO analysis)           
  Simon Mueller                                 : openCOSMO-RS                            
  Christopher J. Cramer and Donald G. Truhlar   : smd solvation model                     
  S Lehtola, MJT Oliveira, MAL Marques          : LibXC Library                           
  Liviu Ungur et al                             : ANISO software                          


 Your calculation uses the libint2 library for the computation of 2-el integrals
 For citations please refer to: http://libint.valeyev.net

 Your ORCA version has been built with support for libXC version: 7.0.0
 For citations please refer to: https://libxc.gitlab.io

 This ORCA versions uses:
   CBLAS   interface :  Fast vector & matrix operations
   LAPACKE interface :  Fast linear algebra routines
   SCALAPACK package :  Parallel linear algebra routines
   Shared memory     :  Shared parallel matrices
   BLAS/LAPACK       :  OpenBLAS 0.3.29  USE64BITINT DYNAMIC_ARCH NO_AFFINITY Zen SINGLE_THREADED
        Core in use  :  Zen
   Copyright (c) 2011-2014, The OpenBLAS Project


  ***********************************
  * Starting time: Wed Sep 10 13:39:50 2025
  * Host name:     wyk-Server
  * Process ID:    2316231
  * Working dir.:  /home/wyk/Documents/code/openQDC/MGMR/singlepointcalc/120/sp
  ***********************************

Your calculation utilizes the atom-pairwise dispersion correction
with the Becke-Johnson damping scheme (D3BJ)


Warning: RI is on but no J-basis has been assigned. Assigning Def2/J (nothing to worry about!)
================================================================================

----- Orbital basis set information -----
Your calculation utilizes the basis: def2-SVP
   F. Weigend and R. Ahlrichs, Phys. Chem. Chem. Phys. 7, 3297 (2005).

----- AuxJ basis set information -----
Your calculation utilizes the auxiliary basis: def2/J
   H-Rn: F. Weigend, Phys. Chem. Chem. Phys. 8, 1057 (2006).
   Fr-Lr: K. Eichkorn, F. Weigend, O. Treutler, R. Ahlrichs; Theor. Chem. Acc. 97, 119 (1997).

================================================================================
                                        WARNINGS
                       Please study these warnings very carefully!
================================================================================


================================================================================
                                       INPUT FILE
================================================================================
NAME = orca.inp
|  1> ! B3LYP def2-SVP d3 EnGrad 
|  2> %pal nprocs 6 end 
|  3> *xyz 0 1 
|  4> N   1.28677770235762 -0.87246875012083 -0.16169174112295
|  5> B   1.74605035532338 0.30081508938482 0.65561932790681
|  6> B   -1.51800813745231 -0.16999230030316 0.05920442168148
|  7> N   -2.10543427615026 0.55531590111168 -0.97440456255349
|  8> H   1.39918311110972 -1.80177477471302 0.2372348134419
|  9> H   1.52882375960011 -0.89238854220002 -1.14945909594291
| 10> H   -0.16881874885593 -0.56069475682647 -0.09082925723197
| 11> H   2.20542190029755 0.01668484040582 1.7453595235772
| 12> H   2.2724382340545 1.18671877398099 0.00735170082496
| 13> H   0.56138753564438 0.9134567874822 1.03449837624859
| 14> H   -0.31127419970629 0.45457719643019 0.61542226253001
| 15> H   -2.21027570964081 -0.84908347501242 0.77898368175988
| 16> H   -3.10237076155125 0.55260639907027 -1.16254265826219
| 17> H   -1.58390076503043 1.16622761130994 -1.59474679285731
| 18> *
| 19> 
| 20>                          ****END OF INPUT****
================================================================================

                     *******************************
                     * Energy+Gradient Calculation *
                     *******************************

---------------------------------
CARTESIAN COORDINATES (ANGSTROEM)
---------------------------------
  N      1.286778   -0.872469   -0.161692
  B      1.746050    0.300815    0.655619
  B     -1.518008   -0.169992    0.059204
  N     -2.105434    0.555316   -0.974405
  H      1.399183   -1.801775    0.237235
  H      1.528824   -0.892389   -1.149459
  H     -0.168819   -0.560695   -0.090829
  H      2.205422    0.016685    1.745360
  H      2.272438    1.186719    0.007352
  H      0.561388    0.913457    1.034498
  H     -0.311274    0.454577    0.615422
  H     -2.210276   -0.849083    0.778984
  H     -3.102371    0.552606   -1.162543
  H     -1.583901    1.166228   -1.594747

----------------------------
CARTESIAN COORDINATES (A.U.)
----------------------------
  NO LB      ZA    FRAG     MASS         X           Y           Z
   0 N     7.0000    0    14.007    2.431657   -1.648727   -0.305553
   1 B     5.0000    0    10.810    3.299557    0.568458    1.238941
   2 B     5.0000    0    10.810   -2.868620   -0.321239    0.111880
   3 N     7.0000    0    14.007   -3.978694    1.049395   -1.841358
   4 H     1.0000    0     1.008    2.644073   -3.404861    0.448309
   5 H     1.0000    0     1.008    2.889058   -1.686370   -2.172163
   6 H     1.0000    0     1.008   -0.319021   -1.059560   -0.171642
   7 H     1.0000    0     1.008    4.167643    0.031530    3.298252
   8 H     1.0000    0     1.008    4.294286    2.242573    0.013893
   9 H     1.0000    0     1.008    1.060869    1.726183    1.954919
  10 H     1.0000    0     1.008   -0.588223    0.859026    1.162980
  11 H     1.0000    0     1.008   -4.176816   -1.604535    1.472066
  12 H     1.0000    0     1.008   -5.862631    1.044275   -2.196887
  13 H     1.0000    0     1.008   -2.993139    2.203851   -3.013635

--------------------------------
INTERNAL COORDINATES (ANGSTROEM)
--------------------------------
 N      0   0   0     0.000000000000     0.00000000     0.00000000
 B      1   0   0     1.501840111785     0.00000000     0.00000000
 B      1   2   0     2.899843424133    93.73126597     0.00000000
 N      3   1   2     1.392655372932   118.52904465    96.21673264
 H      1   2   3     1.017539708904   117.79763818   248.14717075
 H      1   2   3     1.017186039617   118.09906262   112.68757514
 H      3   1   2     1.412611241865     2.70460652   173.69522942
 H      2   1   3     1.216258980964   114.87209234   111.12482630
 H      2   1   3     1.217440123201   114.26296501   253.67310552
 H      2   1   3     1.386472206663   103.45154634     2.69583181
 H     10   2   1     1.071323374392   113.56799155   356.33193669
 H      3   1   2     1.207676032018   117.62063085   252.89367643
 H      4   3   1     1.014537155742   123.41690406   156.52473622
 H      4   3   1     1.014906302856   123.39371611   334.24121671

---------------------------
INTERNAL COORDINATES (A.U.)
---------------------------
 N      0   0   0     0.000000000000     0.00000000     0.00000000
 B      1   0   0     2.838066508211     0.00000000     0.00000000
 B      1   2   0     5.479909902864    93.73126597     0.00000000
 N      3   1   2     2.631737253776   118.52904465    96.21673264
 H      1   2   3     1.922871380219   117.79763818   248.14717075
 H      1   2   3     1.922203042124   118.09906262   112.68757514
 H      3   1   2     2.669448380823     2.70460652   173.69522942
 H      2   1   3     2.298396381945   114.87209234   111.12482630
 H      2   1   3     2.300628417296   114.26296501   253.67310552
 H      2   1   3     2.620052762887   103.45154634     2.69583181
 H     10   2   1     2.024507778469   113.56799155   356.33193669
 H      3   1   2     2.282176959015   117.62063085   252.89367643
 H      4   3   1     1.917197377041   123.41690406   156.52473622
 H      4   3   1     1.917894963988   123.39371611   334.24121671

---------------------
BASIS SET INFORMATION
---------------------
There are 3 groups of distinct atoms

 Group   1 Type N   : 7s4p1d contracted to 3s2p1d pattern {511/31/1}
 Group   2 Type B   : 7s4p1d contracted to 3s2p1d pattern {511/31/1}
 Group   3 Type H   : 4s1p contracted to 2s1p pattern {31/1}

Atom   0N    basis set group =>   1
Atom   1B    basis set group =>   2
Atom   2B    basis set group =>   2
Atom   3N    basis set group =>   1
Atom   4H    basis set group =>   3
Atom   5H    basis set group =>   3
Atom   6H    basis set group =>   3
Atom   7H    basis set group =>   3
Atom   8H    basis set group =>   3
Atom   9H    basis set group =>   3
Atom  10H    basis set group =>   3
Atom  11H    basis set group =>   3
Atom  12H    basis set group =>   3
Atom  13H    basis set group =>   3
---------------------------------
AUXILIARY/J BASIS SET INFORMATION
---------------------------------
There are 3 groups of distinct atoms

 Group   1 Type N   : 12s5p4d2f1g contracted to 6s4p3d1f1g pattern {711111/2111/211/2/1}
 Group   2 Type B   : 12s5p4d2f1g contracted to 6s4p3d1f1g pattern {711111/2111/211/2/1}
 Group   3 Type H   : 5s2p1d contracted to 3s1p1d pattern {311/2/1}

Atom   0N    basis set group =>   1
Atom   1B    basis set group =>   2
Atom   2B    basis set group =>   2
Atom   3N    basis set group =>   1
Atom   4H    basis set group =>   3
Atom   5H    basis set group =>   3
Atom   6H    basis set group =>   3
Atom   7H    basis set group =>   3
Atom   8H    basis set group =>   3
Atom   9H    basis set group =>   3
Atom  10H    basis set group =>   3
Atom  11H    basis set group =>   3
Atom  12H    basis set group =>   3
Atom  13H    basis set group =>   3


           ************************************************************
           *        Program running with 6 parallel MPI-processes     *
           *              working on a common directory               *
           ************************************************************
------------------------------------------------------------------------------
                             ORCA STARTUP CALCULATIONS
                           -- RI-GTO INTEGRALS CHOSEN --
------------------------------------------------------------------------------
------------------------------------------------------------------------------
                   ___                                                        
                  /   \      - P O W E R E D   B Y -                         
                 /     \                                                     
                 |  |  |   _    _      __       _____    __    __             
                 |  |  |  | |  | |    /  \     |  _  \  |  |  /  |          
                  \  \/   | |  | |   /    \    | | | |  |  | /  /          
                 / \  \   | |__| |  /  /\  \   | |_| |  |  |/  /          
                |  |  |   |  __  | /  /__\  \  |    /   |      \           
                |  |  |   | |  | | |   __   |  |    \   |  |\   \          
                \     /   | |  | | |  |  |  |  | |\  \  |  | \   \       
                 \___/    |_|  |_| |__|  |__|  |_| \__\ |__|  \__/        
                                                                              
                      - O R C A' S   B I G   F R I E N D -                    
                                      &                                       
                       - I N T E G R A L  F E E D E R -                       
                                                                              
 v1 FN, 2020, v2 2021, v3 2022-2024                                           
------------------------------------------------------------------------------


----------------------
SHARK INTEGRAL PACKAGE
----------------------

Number of atoms                             ...     14
Number of basis functions                   ...    106
Number of shells                            ...     54
Maximum angular momentum                    ...      2
Integral batch strategy                     ... SHARK/LIBINT Hybrid
RI-J (if used) integral strategy            ... SPLIT-RIJ (Revised 2003 algorithm where possible)
Printlevel                                  ...      1
Contraction scheme used                     ... SEGMENTED contraction
Prescreening option                         ... SCHWARTZ
   Thresh                                   ... 2.500e-11
   Tcut                                     ... 2.500e-12
   Tpresel                                  ... 2.500e-12 
Coulomb Range Separation                    ... NOT USED
Exchange Range Separation                   ... NOT USED
Multipole approximations                    ... NOT USED
Finite Nucleus Model                        ... NOT USED
CABS basis                                  ... NOT available
Auxiliary Coulomb fitting basis             ... AVAILABLE
   # of basis functions in Aux-J            ...    306
   # of shells in Aux-J                     ...    110
   Maximum angular momentum in Aux-J        ...      4
Auxiliary J/K fitting basis                 ... NOT available
Auxiliary Correlation fitting basis         ... NOT available
Auxiliary 'external' fitting basis          ... NOT available

Checking pre-screening integrals            ... done (  0.0 sec) Dimension = 54
   => SHARK Basis and OBASIS are compatible. Storing Pre-screening
Shell pair information
Shell pair cut-off parameter TPreSel        ...   2.5e-12
Total number of shell pairs                 ...      1485
Shell pairs after pre-screening             ...      1434
Total number of primitive shell pairs       ...      4933
Primitive shell pairs kept                  ...      3779
          la=0 lb=0:    515 shell pairs
          la=1 lb=0:    553 shell pairs
          la=1 lb=1:    162 shell pairs
          la=2 lb=0:    125 shell pairs
          la=2 lb=1:     69 shell pairs
          la=2 lb=2:     10 shell pairs

Checking whether 4 symmetric matrices of dimension 106 fit in memory
:Max Core in MB      =   4096.00
 MB in use           =      5.08
 MB left             =   4090.92
 MB needed           =      0.17
 Data fit in memory  = YES
Calculating RI/J V-Matrix + Cholesky decomp.... done (  0.0 sec)
Calculating Nuclear repulsion               ... done (  0.0 sec) ENN=    116.746472818577 Eh

Diagonalization of the overlap matrix:
Smallest eigenvalue                        ... 4.797e-03
Time for diagonalization                   ...    0.002 sec
Threshold for overlap eigenvalues          ... 1.000e-07
Number of eigenvalues below threshold      ... 0
Time for construction of square roots      ...    0.001 sec
Total time needed                          ...    0.004 sec

-------------------
DFT GRID GENERATION
-------------------

General Integration Accuracy     IntAcc      ... 4.388
Radial Grid Type                 RadialGrid  ... OptM3 with GC (2021)
Angular Grid (max. ang.)         AngularGrid ... 4 (Lebedev-302)
Angular grid pruning method      GridPruning ... 4 (adaptive)
Weight generation scheme         WeightScheme... mBecke (2022)
Basis function cutoff            BFCut       ... 1.0000e-11
Integration weight cutoff        WCut        ... 1.0000e-14
Partially contracted basis set               ... off
Rotationally invariant grid construction     ... off
Angular grids for H and He will be reduced by one unit

Total number of grid points                  ...    56440
Total number of batches                      ...      889
Average number of points per batch           ...       63
Average number of grid points per atom       ...     4031

--------------------
COSX GRID GENERATION
--------------------

GRIDX 1
-------
General Integration Accuracy     IntAcc      ... 3.816
Radial Grid Type                 RadialGrid  ... OptM3 with GC (2021)
Angular Grid (max. ang.)         AngularGrid ... 1 (Lebedev-50)
Angular grid pruning method      GridPruning ... 4 (adaptive)
Weight generation scheme         WeightScheme... mBecke (2022)
Basis function cutoff            BFCut       ... 1.0000e-11
Integration weight cutoff        WCut        ... 1.0000e-14
Partially contracted basis set               ... on
Rotationally invariant grid construction     ... off
Angular grids for H and He will be reduced by one unit

Total number of grid points                  ...     7294
Total number of batches                      ...       65
Average number of points per batch           ...      112
Average number of grid points per atom       ...      521
UseSFitting                                  ... on

GRIDX 2
-------
General Integration Accuracy     IntAcc      ... 4.020
Radial Grid Type                 RadialGrid  ... OptM3 with GC (2021)
Angular Grid (max. ang.)         AngularGrid ... 2 (Lebedev-110)
Angular grid pruning method      GridPruning ... 4 (adaptive)
Weight generation scheme         WeightScheme... mBecke (2022)
Basis function cutoff            BFCut       ... 1.0000e-11
Integration weight cutoff        WCut        ... 1.0000e-14
Partially contracted basis set               ... on
Rotationally invariant grid construction     ... off
Angular grids for H and He will be reduced by one unit

Total number of grid points                  ...    14941
Total number of batches                      ...      124
Average number of points per batch           ...      120
Average number of grid points per atom       ...     1067
UseSFitting                                  ... on

GRIDX 3
-------
General Integration Accuracy     IntAcc      ... 4.338
Radial Grid Type                 RadialGrid  ... OptM3 with GC (2021)
Angular Grid (max. ang.)         AngularGrid ... 3 (Lebedev-194)
Angular grid pruning method      GridPruning ... 4 (adaptive)
Weight generation scheme         WeightScheme... mBecke (2022)
Basis function cutoff            BFCut       ... 1.0000e-11
Integration weight cutoff        WCut        ... 1.0000e-14
Partially contracted basis set               ... on
Rotationally invariant grid construction     ... off
Angular grids for H and He will be reduced by one unit

Total number of grid points                  ...    32677
Total number of batches                      ...      263
Average number of points per batch           ...      124
Average number of grid points per atom       ...     2334
UseSFitting                                  ... on
Grids setup in   0.7 sec
Initializing property integral containers    ... done (  0.0 sec)

SHARK setup successfully completed in   0.8 seconds

Maximum memory used throughout the entire STARTUP-calculation: 15.7 MB


           ************************************************************
           *        Program running with 6 parallel MPI-processes     *
           *              working on a common directory               *
           ************************************************************
-------------------------------------------------------------------------------
                                 ORCA GUESS
                   Start orbitals & Density for SCF / CASSCF
-------------------------------------------------------------------------------

------------
SCF SETTINGS
------------
Hamiltonian:
 Density Functional     Method          .... DFT(GTOs)
 Exchange Functional    Exchange        .... B88
   X-Alpha parameter    XAlpha          ....  0.666667
   Becke's b parameter  XBeta           ....  0.004200
 Correlation Functional Correlation     .... LYP
 LDA part of GGA corr.  LDAOpt          .... VWN-5
 Gradients option       PostSCFGGA      .... off
 Hybrid DFT is turned on
   Fraction HF Exchange ScalHFX         ....  0.200000
   Scaling of DF-GGA-X  ScalDFX         ....  0.720000
   Scaling of DF-GGA-C  ScalDFC         ....  0.810000
   Scaling of DF-LDA-C  ScalLDAC        ....  1.000000
   Perturbative correction              ....  0.000000
   NL short-range parameter             ....  4.800000
 RI-approximation to the Coulomb term is turned on
   Number of AuxJ basis functions       .... 306
   RIJ-COSX (HFX calculated with COS-X)).... on


General Settings:
 Integral files         IntName         .... orca
 Hartree-Fock type      HFTyp           .... RHF
 Total Charge           Charge          ....    0
 Multiplicity           Mult            ....    1
 Number of Electrons    NEL             ....   34
 Basis Dimension        Dim             ....  106
 Nuclear Repulsion      ENuc            ....    116.7464728186 Eh

Convergence Acceleration:
 AO-DIIS                CNVDIIS         .... on
   Start iteration      DIISMaxIt       ....    12
   Startup error        DIISStart       ....  0.200000
   # of expansion vecs  DIISMaxEq       ....     5
   Bias factor          DIISBfac        ....   1.050
   Max. coefficient     DIISMaxC        ....  10.000
 MO-DIIS                CNVKDIIS        .... off
 Trust-Rad. Augm. Hess. CNVTRAH         .... auto
   Auto Start mean grad. ratio tolernc. ....  1.125000
   Auto Start start iteration           ....    50
   Auto Start num. interpolation iter.  ....    10
   Max. Number of Micro iterations      ....    24
   Max. Number of Macro iterations      .... Maxiter - #DIIS iter
   Number of Davidson start vectors     ....     2
   Converg. threshold    (grad. norm)   ....   1.000e-05
   Grad. Scal. Fac. for Micro threshold ....   0.100
   Minimum threshold for Micro iter.    ....   1.000e-02
   NR start threshold (gradient norm)   ....   1.000e-04
   Initial trust radius                 ....   0.400
   Minimum AH scaling param. (alpha)    ....   1.000
   Maximum AH scaling param. (alpha)    .... 1000.000
   Quad. conv. algorithm                .... NR
   White noise on init. David. guess    .... on
   Maximum white noise                  ....   0.010
   Pseudo random numbers                .... off
   Inactive MOs                         .... canonical
   Orbital update algorithm             .... Taylor
   Preconditioner                       .... Diag
   Full preconditioner red. dimension   ....   250
 SOSCF                 CNVSOSCF           .... on
   Start iteration     SOSCFMaxIt         ....   150
   Startup grad/error  SOSCFStart         ....  0.003300
   Hessian update      SOSCFHessUp        .... L-BFGS
   Autom. constraints  SOSCFAutoConstrain .... off
 Level Shifting         CNVShift        .... on
   Level shift para.    LevelShift      ....    0.2500
   Turn off err/grad.   ShiftErr        ....    0.0010
 Zerner damping         CNVZerner       .... off
 Static damping         CNVDamp         .... on
   Fraction old density DampFac         ....    0.7000
   Max. Damping (<1)    DampMax         ....    0.9800
   Min. Damping (>=0)   DampMin         ....    0.0000
   Turn off err/grad.   DampErr         ....    0.1000

SCF Procedure:
 Maximum # iterations   MaxIter         ....   125
 SCF integral mode      SCFMode         .... Direct
   Integral package                     .... SHARK and LIBINT hybrid scheme
 Reset frequency        DirectResetFreq ....    20
 Integral Threshold     Thresh          ....  2.500e-11 Eh
 Primitive CutOff       TCut            ....  2.500e-12 Eh

Convergence Tolerance:
 Convergence Check Mode ConvCheckMode   .... Total+1el-Energy
 Convergence forced     ConvForced      .... 0
 Energy Change          TolE            ....  1.000e-08 Eh
 1-El. energy change                    ....  1.000e-05 Eh
 Orbital Gradient       TolG            ....  1.000e-05
 Orbital Rotation angle TolX            ....  1.000e-05
 DIIS Error             TolErr          ....  5.000e-07

------------------------------
INITIAL GUESS: MODEL POTENTIAL
------------------------------
Loading Hartree-Fock densities                     ... done
Calculating cut-offs                               ... done
Initializing the effective Hamiltonian             ... done
Setting up the integral package (SHARK)            ... done
Starting the Coulomb interaction                   ... done (   0.0 sec)
Making the grid                                    ... done (   0.1 sec)
Mapping shells                                     ... done
Starting the XC term evaluation                    ... done (   0.0 sec)
  promolecular density results
     # of electrons  =     33.991783661
     EX              =    -23.731307981
     EC              =     -1.046120011
     EX+EC           =    -24.777427992
Transforming the Hamiltonian                       ... done (   0.0 sec)
Diagonalizing the Hamiltonian                      ... done (   0.0 sec)
Back transforming the eigenvectors                 ... done (   0.0 sec)
Now organizing SCF variables                       ... done
                      ------------------
                      INITIAL GUESS DONE (   0.1 sec)
                      ------------------
             **** ENERGY FILE WAS UPDATED (orca.en.tmp) ****
Finished Guess after   0.3 sec
Maximum memory used throughout the entire GUESS-calculation: 7.5 MB


           ************************************************************
           *        Program running with 6 parallel MPI-processes     *
           *              working on a common directory               *
           ************************************************************

-------------------------------------------------------------------------------------------
                                      ORCA LEAN-SCF
                              memory conserving SCF solver
-------------------------------------------------------------------------------------------

----------------------------------------D-I-I-S--------------------------------------------
Iteration    Energy (Eh)           Delta-E    RMSDP     MaxDP     DIISErr   Damp  Time(sec)
-------------------------------------------------------------------------------------------
               ***  Starting incremental Fock matrix formation  ***
    1    -164.7064843631690110     0.00e+00  1.19e-02  9.15e-02  2.60e-01  0.700   0.5
    2    -164.8167782831639556    -1.10e-01  8.38e-03  5.69e-02  1.19e-01  0.700   0.3
                               ***Turning on AO-DIIS***
    3    -164.8591090641882602    -4.23e-02  3.53e-03  2.49e-02  3.52e-02  0.700   0.3
    4    -164.8846633660236876    -2.56e-02  5.83e-03  4.51e-02  1.79e-02  0.000   0.3
    5    -164.9406595764613712    -5.60e-02  1.27e-03  9.80e-03  7.42e-03  0.000   0.3
                              *** Initializing SOSCF ***
---------------------------------------S-O-S-C-F--------------------------------------
Iteration    Energy (Eh)           Delta-E    RMSDP     MaxDP     MaxGrad    Time(sec)
--------------------------------------------------------------------------------------
    6    -164.9411384060175010    -4.79e-04  3.78e-04  2.09e-03  1.62e-03     0.3
               *** Restarting incremental Fock matrix formation ***
    7    -164.9411528923368451    -1.45e-05  2.36e-04  1.29e-03  2.48e-04     0.5
    8    -164.9411556312541052    -2.74e-06  7.20e-05  7.44e-04  2.22e-04     0.4
    9    -164.9411568762855040    -1.25e-06  3.57e-05  2.39e-04  6.17e-05     0.4
   10    -164.9411568864366018    -1.02e-08  1.66e-05  1.41e-04  6.75e-05     0.4
   11    -164.9411569726126459    -8.62e-08  6.34e-06  5.61e-05  1.39e-05     0.4
   12    -164.9411569720068655     6.06e-10  3.45e-06  3.96e-05  1.17e-05     0.4
                 **** Energy Check signals convergence ****

               *****************************************************
               *                     SUCCESS                       *
               *           SCF CONVERGED AFTER  12 CYCLES          *
               *****************************************************

Recomputing exchange energy using gridx3       ... done (    0.684 sec)
Old exchange energy                            :     -4.876420170 Eh
New exchange energy                            :     -4.876435599 Eh
Exchange energy change after final integration :     -0.000015429 Eh
Total energy after final integration           :   -164.941172405 Eh
             **** ENERGY FILE WAS UPDATED (orca.en.tmp) ****

----------------
TOTAL SCF ENERGY
----------------

Total Energy       :       -164.94117240479486 Eh           -4488.27748 eV

Components:
Nuclear Repulsion  :        116.74647281857695 Eh            3176.83303 eV
Electronic Energy  :       -281.68762979405108 Eh           -7665.11009 eV
One Electron Energy:       -451.98622667091911 Eh          -12299.17051 eV
Two Electron Energy:        170.29859687686800 Eh            4634.06041 eV

Virial components:
Potential Energy   :       -327.94983462574407 Eh           -8923.96869 eV
Kinetic Energy     :        163.00866222094925 Eh            4435.69121 eV
Virial Ratio       :          2.01185526068072

DFT components:
N(Alpha)           :       16.999991881313 electrons
N(Beta)            :       16.999991881313 electrons
N(Total)           :       33.999983762627 electrons
E(X)               :      -19.350955170987 Eh       
E(C)               :       -1.254106941500 Eh       
E(XC)              :      -20.605062112488 Eh       

---------------
SCF CONVERGENCE
---------------

  Last Energy change         ...   -6.0578e-10  Tolerance :   1.0000e-08
  Last MAX-Density change    ...    3.9583e-05  Tolerance :   1.0000e-07
  Last RMS-Density change    ...    3.4533e-06  Tolerance :   5.0000e-09
  Last DIIS Error            ...    1.6229e-03  Tolerance :   5.0000e-07
  Last Orbital Gradient      ...    1.1750e-05  Tolerance :   1.0000e-05
  Last Orbital Rotation      ...    1.5594e-05  Tolerance :   1.0000e-05


----------------
ORBITAL ENERGIES
----------------

  NO   OCC          E(Eh)            E(eV) 
   0   2.0000     -14.343821      -390.3152 
   1   2.0000     -14.333460      -390.0333 
   2   2.0000      -6.754510      -183.7996 
   3   2.0000      -6.703622      -182.4148 
   4   2.0000      -0.868591       -23.6356 
   5   2.0000      -0.855949       -23.2915 
   6   2.0000      -0.570984       -15.5373 
   7   2.0000      -0.523070       -14.2335 
   8   2.0000      -0.511827       -13.9275 
   9   2.0000      -0.497807       -13.5460 
  10   2.0000      -0.456157       -12.4127 
  11   2.0000      -0.380489       -10.3536 
  12   2.0000      -0.365784        -9.9535 
  13   2.0000      -0.327104        -8.9009 
  14   2.0000      -0.282922        -7.6987 
  15   2.0000      -0.278263        -7.5719 
  16   2.0000      -0.247699        -6.7402 
  17   0.0000      -0.037263        -1.0140 
  18   0.0000       0.040281         1.0961 
  19   0.0000       0.059363         1.6153 
  20   0.0000       0.097614         2.6562 
  21   0.0000       0.110359         3.0030 
  22   0.0000       0.122763         3.3406 
  23   0.0000       0.138836         3.7779 
  24   0.0000       0.156793         4.2666 
  25   0.0000       0.178739         4.8637 
  26   0.0000       0.191587         5.2133 
  27   0.0000       0.202905         5.5213 
*Only the first 10 virtual orbitals were printed.

                    ********************************
                    * MULLIKEN POPULATION ANALYSIS *
                    ********************************

-----------------------
MULLIKEN ATOMIC CHARGES
-----------------------
   0 N :   -0.115656
   1 B :   -0.195605
   2 B :   -0.246549
   3 N :   -0.035284
   4 H :    0.125816
   5 H :    0.122476
   6 H :    0.172603
   7 H :   -0.054094
   8 H :   -0.057520
   9 H :   -0.024747
  10 H :    0.077236
  11 H :   -0.021281
  12 H :    0.123823
  13 H :    0.128782
Sum of atomic charges:   -0.0000000

--------------------------------
MULLIKEN REDUCED ORBITAL CHARGES
--------------------------------
  0 N s       :     3.362150  s :     3.362150
      pz      :     1.105453  p :     3.740108
      px      :     1.482227
      py      :     1.152428
      dz2     :     0.005156  d :     0.013398
      dxz     :     0.001236
      dyz     :     0.002210
      dx2y2   :     0.003737
      dxy     :     0.001059

  1 B s       :     2.911136  s :     2.911136
      pz      :     0.854679  p :     2.216992
      px      :     0.636923
      py      :     0.725390
      dz2     :     0.011188  d :     0.067477
      dxz     :     0.008276
      dyz     :     0.021681
      dx2y2   :     0.013572
      dxy     :     0.012760

  2 B s       :     3.043619  s :     3.043619
      pz      :     0.661124  p :     2.129844
      px      :     0.872754
      py      :     0.595966
      dz2     :     0.017461  d :     0.073086
      dxz     :     0.016123
      dyz     :     0.015067
      dx2y2   :     0.012053
      dxy     :     0.012383

  3 N s       :     3.297800  s :     3.297800
      pz      :     1.301104  p :     3.725695
      px      :     1.043067
      py      :     1.381525
      dz2     :     0.001537  d :     0.011788
      dxz     :     0.003039
      dyz     :     0.002313
      dx2y2   :     0.003203
      dxy     :     0.001696

  4 H s       :     0.828478  s :     0.828478
      pz      :     0.012526  p :     0.045707
      px      :     0.011810
      py      :     0.021371

  5 H s       :     0.831714  s :     0.831714
      pz      :     0.023149  p :     0.045810
      px      :     0.012617
      py      :     0.010044

  6 H s       :     0.791912  s :     0.791912
      pz      :     0.003893  p :     0.035485
      px      :     0.023538
      py      :     0.008054

  7 H s       :     1.042136  s :     1.042136
      pz      :     0.007672  p :     0.011958
      px      :     0.002907
      py      :     0.001379

  8 H s       :     1.045724  s :     1.045724
      pz      :     0.003106  p :     0.011796
      px      :     0.003245
      py      :     0.005444

  9 H s       :     1.011352  s :     1.011352
      pz      :     0.003286  p :     0.013395
      px      :     0.006520
      py      :     0.003588

 10 H s       :     0.898125  s :     0.898125
      pz      :     0.005196  p :     0.024639
      px      :     0.012282
      py      :     0.007161

 11 H s       :     1.009010  s :     1.009010
      pz      :     0.004235  p :     0.012271
      px      :     0.004222
      py      :     0.003814

 12 H s       :     0.829811  s :     0.829811
      pz      :     0.011350  p :     0.046366
      px      :     0.023812
      py      :     0.011204

 13 H s       :     0.824738  s :     0.824738
      pz      :     0.016104  p :     0.046480
      px      :     0.014097
      py      :     0.016279



                     *******************************
                     * LOEWDIN POPULATION ANALYSIS *
                     *******************************

----------------------
LOEWDIN ATOMIC CHARGES
----------------------
   0 N :    0.065669
   1 B :   -0.335202
   2 B :   -0.178390
   3 N :    0.063052
   4 H :    0.080957
   5 H :    0.078457
   6 H :    0.077471
   7 H :   -0.042523
   8 H :   -0.045923
   9 H :    0.014936
  10 H :    0.091433
  11 H :   -0.039142
  12 H :    0.084851
  13 H :    0.084354

-------------------------------
LOEWDIN REDUCED ORBITAL CHARGES
-------------------------------
  0 N s       :     3.078817  s :     3.078817
      pz      :     1.185333  p :     3.820931
      px      :     1.409418
      py      :     1.226180
      dz2     :     0.013574  d :     0.034583
      dxz     :     0.002702
      dyz     :     0.007046
      dx2y2   :     0.009211
      dxy     :     0.002050

  1 B s       :     2.737865  s :     2.737865
      pz      :     0.896268  p :     2.417531
      px      :     0.727259
      py      :     0.794005
      dz2     :     0.027917  d :     0.179806
      dxz     :     0.027817
      dyz     :     0.054527
      dx2y2   :     0.028173
      dxy     :     0.041370

  2 B s       :     2.775711  s :     2.775711
      pz      :     0.710888  p :     2.215552
      px      :     0.857535
      py      :     0.647128
      dz2     :     0.041949  d :     0.187128
      dxz     :     0.042798
      dyz     :     0.038724
      dx2y2   :     0.024488
      dxy     :     0.039170

  3 N s       :     3.031905  s :     3.031905
      pz      :     1.339221  p :     3.871944
      px      :     1.158121
      py      :     1.374602
      dz2     :     0.004503  d :     0.033100
      dxz     :     0.009047
      dyz     :     0.005149
      dx2y2   :     0.009259
      dxy     :     0.005142

  4 H s       :     0.798671  s :     0.798671
      pz      :     0.026422  p :     0.120372
      px      :     0.035214
      py      :     0.058735

  5 H s       :     0.800978  s :     0.800978
      pz      :     0.062625  p :     0.120565
      px      :     0.037800
      py      :     0.020140

  6 H s       :     0.796487  s :     0.796487
      pz      :     0.010814  p :     0.126042
      px      :     0.089417
      py      :     0.025812

  7 H s       :     1.011167  s :     1.011167
      pz      :     0.017266  p :     0.031357
      px      :     0.008437
      py      :     0.005654

  8 H s       :     1.014991  s :     1.014991
      pz      :     0.008967  p :     0.030932
      px      :     0.009096
      py      :     0.012870

  9 H s       :     0.936109  s :     0.936109
      pz      :     0.007420  p :     0.048955
      px      :     0.033756
      py      :     0.007779

 10 H s       :     0.803432  s :     0.803432
      pz      :     0.022067  p :     0.105134
      px      :     0.051575
      py      :     0.031493

 11 H s       :     1.006348  s :     1.006348
      pz      :     0.010421  p :     0.032794
      px      :     0.012981
      py      :     0.009391

 12 H s       :     0.796515  s :     0.796515
      pz      :     0.026467  p :     0.118634
      px      :     0.064183
      py      :     0.027984

 13 H s       :     0.797709  s :     0.797709
      pz      :     0.042403  p :     0.117937
      px      :     0.030686
      py      :     0.044847



                      *****************************
                      * MAYER POPULATION ANALYSIS *
                      *****************************

  NA   - Mulliken gross atomic population
  ZA   - Total nuclear charge
  QA   - Mulliken gross atomic charge
  VA   - Mayer's total valence
  BVA  - Mayer's bonded valence
  FA   - Mayer's free valence

  ATOM       NA         ZA         QA         VA         BVA        FA
  0 N      7.1157     7.0000    -0.1157     3.4940     3.4940    -0.0000
  1 B      5.1956     5.0000    -0.1956     3.7460     3.7460     0.0000
  2 B      5.2465     5.0000    -0.2465     3.6719     3.6719    -0.0000
  3 N      7.0353     7.0000    -0.0353     3.5372     3.5372    -0.0000
  4 H      0.8742     1.0000     0.1258     0.9856     0.9856     0.0000
  5 H      0.8775     1.0000     0.1225     0.9866     0.9866    -0.0000
  6 H      0.8274     1.0000     0.1726     0.9297     0.9297    -0.0000
  7 H      1.0541     1.0000    -0.0541     0.9727     0.9727    -0.0000
  8 H      1.0575     1.0000    -0.0575     0.9706     0.9706    -0.0000
  9 H      1.0247     1.0000    -0.0247     0.9693     0.9693    -0.0000
 10 H      0.9228     1.0000     0.0772     0.9429     0.9429    -0.0000
 11 H      1.0213     1.0000    -0.0213     0.9701     0.9701     0.0000
 12 H      0.8762     1.0000     0.1238     0.9927     0.9927     0.0000
 13 H      0.8712     1.0000     0.1288     0.9853     0.9853    -0.0000

  Mayer bond orders larger than 0.100000
B(  0-N ,  1-B ) :   1.1091 B(  0-N ,  4-H ) :   0.9659 B(  0-N ,  5-H ) :   0.9664 
B(  0-N ,  6-H ) :   0.3843 B(  1-B ,  7-H ) :   0.9572 B(  1-B ,  8-H ) :   0.9610 
B(  1-B ,  9-H ) :   0.5617 B(  2-B ,  3-N ) :   1.6156 B(  2-B ,  6-H ) :   0.4971 
B(  2-B , 10-H ) :   0.4332 B(  2-B , 11-H ) :   0.9634 B(  3-N , 12-H ) :   0.9565 
B(  3-N , 13-H ) :   0.9461 B(  9-H , 10-H ) :   0.3763 

-------
TIMINGS
-------

Total SCF time: 0 days 0 hours 0 min 5 sec 

Total time                  ....       5.803 sec
Sum of individual times     ....       5.413 sec  ( 93.3%)

SCF preparation             ....       0.167 sec  (  2.9%)
Fock matrix formation       ....       5.050 sec  ( 87.0%)
  Startup                   ....       0.004 sec  (  0.1% of F)
  Split-RI-J                ....       0.381 sec  (  7.5% of F)
  Chain of spheres X        ....       3.742 sec  ( 74.1% of F)
  XC integration            ....       1.135 sec  ( 22.5% of F)
    XC Preparation          ....       0.000 sec  (  0.0% of XC)
    Basis function eval.    ....       0.361 sec  ( 31.8% of XC)
    Density eval.           ....       0.180 sec  ( 15.9% of XC)
    XC-Functional eval.     ....       0.080 sec  (  7.1% of XC)
    XC-Potential eval.      ....       0.191 sec  ( 16.8% of XC)
Diagonalization             ....       0.000 sec  (  0.0%)
Density matrix formation    ....       0.035 sec  (  0.6%)
Total Energy calculation    ....       0.015 sec  (  0.3%)
Population analysis         ....       0.012 sec  (  0.2%)
Orbital Transformation      ....       0.013 sec  (  0.2%)
Orbital Orthonormalization  ....       0.000 sec  (  0.0%)
DIIS solution               ....       0.069 sec  (  1.2%)
SOSCF solution              ....       0.053 sec  (  0.9%)
Finished LeanSCF after   5.8 sec

Maximum memory used throughout the entire LEANSCF-calculation: 9.5 MB


-------------------------------------------------------------------------------
                          DFT DISPERSION CORRECTION                            
                                                                               
                              DFTD3 V3.1  Rev 1                                
                          USING Becke-Johnson damping                          
-------------------------------------------------------------------------------
The B3LYP functional is recognized
Active option DFTDOPT                   ...         4   

molecular C6(AA) [au] = 1375.569923 


            DFT-D V3
 parameters
 s6 scaling factor         :     1.0000 
 a1 scaling factor         :     0.3981 
 s8 scaling factor         :     1.9889 
 a2 scaling factor         :     4.4211 
 ad hoc parameters k1-k3   :    16.0000     1.3333    -4.0000 

 Edisp/kcal,au: -9.188693058848  -0.014643112907 
 E6   /kcal   :  -4.627253477 
 E8   /kcal   :  -4.561439582 
 % E8         :  49.641875650 

-------------------------   ----------------
Dispersion correction           -0.014643113
-------------------------   ----------------


-------------------------   --------------------
FINAL SINGLE POINT ENERGY      -164.955815517701
-------------------------   --------------------



           ************************************************************
           *        Program running with 6 parallel MPI-processes     *
           *              working on a common directory               *
           ************************************************************
------------------------------------------------------------------------------
                         ORCA SCF GRADIENT CALCULATION
------------------------------------------------------------------------------

Nuc. rep. gradient        (SHARK) ... done (  0.0 sec)
HCore & Overlap gradient  (SHARK) ... done (  0.0 sec)
Split-RIJ-J gradient      (SHARK) ... done (  0.2 sec)
done (  2.4 sec)
XC gradient                       ... done (  0.6 sec)
Dispersion correction             ... done (  0.1 sec)

-------------------
DISPERSION GRADIENT
-------------------

   1   N   :   -0.000071514   -0.000095679   -0.000016060
   2   B   :   -0.000879516    0.000836245    0.000605304
   3   B   :    0.002487874    0.001008814    0.001053865
   4   N   :   -0.000387353    0.000108158   -0.000192982
   5   H   :    0.000150327   -0.000233150   -0.000023403
   6   H   :    0.000188612   -0.000145538   -0.000175577
   7   H   :   -0.000331009    0.000085977    0.000105695
   8   H   :    0.000116169    0.000072955    0.000032092
   9   H   :    0.000134887    0.000046181    0.000078797
  10   H   :    0.000955667   -0.000812232   -0.000506620
  11   H   :   -0.001897765   -0.000960155   -0.000773912
  12   H   :   -0.000174886   -0.000079535    0.000076373
  13   H   :   -0.000133101    0.000042429   -0.000082589
  14   H   :   -0.000158391    0.000125530   -0.000180982

Difference to translation invariance:
           :    0.0000000000    0.0000000000    0.0000000000

Difference to rotation invariance:
           :    0.0000000000    0.0000000000   -0.0000000000

Norm of the Dispersion gradient    ...    0.0042195887
RMS gradient                       ...    0.0006510967
MAX gradient                       ...    0.0024878741

------------------
CARTESIAN GRADIENT
------------------

   1   N   :   -0.000044615   -0.000055178   -0.000064735
   2   B   :    0.000039469   -0.000029169    0.000003217
   3   B   :    0.000022055   -0.000141959    0.000109777
   4   N   :   -0.000018414    0.000001563   -0.000018279
   5   H   :    0.000001950    0.000081504   -0.000048503
   6   H   :   -0.000036554   -0.000001305    0.000008492
   7   H   :    0.000006932   -0.000054820   -0.000000519
   8   H   :    0.000091510    0.000011023    0.000017728
   9   H   :    0.000010763   -0.000012281    0.000070366
  10   H   :   -0.000028729    0.000074110    0.000055609
  11   H   :    0.000005648    0.000039108   -0.000001866
  12   H   :    0.000008461    0.000036717   -0.000018306
  13   H   :   -0.000047839    0.000027719   -0.000078022
  14   H   :   -0.000010637    0.000022968   -0.000034961

Difference to translation invariance:
           :   -0.0000000000    0.0000000000   -0.0000000000

Difference to rotation invariance:
           :    0.0001678552   -0.0000021526    0.0000514673

Norm of the Cartesian gradient     ...    0.0003102226
RMS gradient                       ...    0.0000478684
MAX gradient                       ...    0.0001419594

-------
TIMINGS
-------

Total SCF gradient time     ....        3.303 sec

Densities                   ....       0.000 sec  (  0.0%)
One electron gradient       ....       0.031 sec  (  0.9%)
RI-J Coulomb gradient       ....       0.183 sec  (  5.5%)
COSX gradient               ....       2.444 sec  ( 74.0%)
XC gradient                 ....       0.593 sec  ( 18.0%)

Maximum memory used throughout the entire SCFGRAD-calculation: 27.4 MB


           ************************************************************
           *        Program running with 6 parallel MPI-processes     *
           *              working on a common directory               *
           ************************************************************

------------------------------------------------------------------------------
                              ORCA PROPERTY CALCULATIONS
------------------------------------------------------------------------------

GBWName                                 ... orca.gbw
Number of atoms                         ...     14
Number of basis functions               ...    106
Max core memory                         ...   4096 MB

Electric properties:
Dipole moment                           ... YES
Quadrupole moment                       ...  NO
Static polarizability (Dipole/Dipole)   ...  NO
Static polarizability (Dipole/Quad.)    ...  NO
Static polarizability (Quad./Quad.)     ...  NO
Static polarizability (Velocity)        ...  NO
Static hyperpolarizability              ...  NO

Atomic electric properties:
Dipole moment                           ...  NO
Quadrupole moment                       ...  NO
Static polarizability                   ...  NO

Choice of electric origin               ... Center of mass
Position of electric origin             ...    -0.266033    -0.089886    -0.245620

General magnetic properties:
Magnetizability                         ...  NO

EPR properties:
g-Tensor (aka g-matrix)                 ...  NO
Zero-Field splitting spin-orbit         ...  NO
Zero-field splitting spin-spin          ...  NO
Hyperfine couplings                     ...  NO (   0 nuclei)
Quadrupole couplings                    ...  NO (   0 nuclei)
Contact density                         ...  NO (   0 nuclei)

NMR properties:
Chemical shifts                         ...  NO (   0 nuclei)
Spin-rotation constants                 ...  NO (   0 nuclei)
Spin-spin couplings                     ...  NO (   0 nuclei,    0 pairs)

Choice of magnetic origin               ... GIAO
Position of magnetic origin             ...     0.000000     0.000000     0.000000

Properties with geometric perturbations:
SCF Hessian                             ...  NO
IR spectrum                             ...  NO
VCD spectrum                            ...  NO
X-ray spectroscopy properties:
SCF XES/XAS/RIXS spectra                ...  NO

SCF SOC stabilization energy            ...  NO
Diagonal Born-Oppenheimer correction    ...  NO

-------------
DIPOLE MOMENT
-------------

Method             : SCF
Type of density    : Electron Density
Multiplicity       :   1
Irrep              :   0
Energy             :  -164.9411724047948553 Eh
Basis              : AO
                                X                 Y                 Z
Electronic contribution:     -2.574158878      -0.913230417      -2.196461717
Nuclear contribution   :      1.486644187       0.449020992       0.872895339
                        -----------------------------------------
Total Dipole Moment    :     -1.087514691      -0.464209426      -1.323566378
                        -----------------------------------------
Magnitude (a.u.)       :      1.774825781
Magnitude (Debye)      :      4.511248620



--------------------
Rotational spectrum 
--------------------
 
Rotational constants in cm-1:             0.456869             0.082020             0.079518 
Rotational constants in MHz :         13696.581056          2458.897540          2383.886033 

Dipole components along the rotational axes: 
x,y,z [a.u.] :    -1.304662    -0.962683    -0.721876 
x,y,z [Debye]:    -3.316188    -2.446946    -1.834862 

 

Dipole moment calculation done in   0.0 sec 

Maximum memory used throughout the entire PROP-calculation: 5.5 MB

--------------------------------
SUGGESTED CITATIONS FOR THIS RUN
--------------------------------

Below you find a list of papers that are relevant to this ORCA run
We neither can nor want to force you to cite these papers, but we appreciate if you do
You receive ORCA, which is the product of decades of hard work by many enthusiastic individuals, for free
The only thing we kindly ask in return is that you cite our papers,
We deeply appreciate it, if you show your appreciation for ORCA by not just citing the generic ORCA reference.

Please note that relegating all ORCA citations to the supporting information does *not* help us.
SI sections are not indexed - citations you put there will not count into any citation statistics
But we need these citations in order to attract the funding resources that allow us to do what we are doing

Therefore, if you are a happy ORCA user, please consider citing a few of the papers listed below in the main body of your paper

In addition to the list printed below, the program has created the file orca.bibtex that contains the list in bibtex format
You can import this file easily into all common literature databanks and citation aid programs


List of essential papers. We consider these as the minimum necessary citations

  1. Neese, F.
     Software update: the ORCA program system, version 6.0
     WIRES Comput. Molec. Sci. 2025 15(1), e70019
     doi.org/10.1002/wcms.7019

List of papers to cite with high priority. The work reported in these papers was absolutely
necessary for this run to complete.
Our perspective: the developers of density functionals and basis sets usually get cited in chemistry papers
Good! But without the algorithms to do something with them, the functionals or basis sets would not do anything.
Hence, in our opinion, the algorithm design and method developments papers are equally worthy of getting cited

  1. Neese, F.
     An improvement of the resolution of the identity approximation for the formation of the Coulomb matrix
     J. Comp. Chem. 2003 24(14), 1740-1747
     doi.org/10.1002/jcc.10318
  2. Neese, F.; Wennmohs, F.; Hansen, A.; Becker, U.
     Efficient, approximate and parallel Hartree-Fock and hybrid DFT calculations. A 'chain-of-spheres' algorithm for the Hartree-Fock exchange
     Chem. Phys. 2009 356(1-3), 98-109
     doi.org/10.1016/j.chemphys.2008.10.036
  3. Grimme, S.; Antony, J.; Ehrlich, S.; Krieg, H.
     A consistent and accurate ab initio parametrization of density functional dispersion correction (DFT-D) for the 94 elements H-Pu
     J. Chem. Phys. 2010 132 , 154104
     doi.org/10.1063/1.3382344
  4. Grimme, S.; Ehrlich, S.; Goerigk, L.
     Effect of the damping function in dispersion corrected density functional theory
     J. Comput. Chem. 2011 32(7), 1456-1465
     doi.org/10.1002/jcc.21759
  5. Helmich-Paris, B.; de Souza, B.; Neese, F.; Izsák, R.
     An improved chain of spheres for exchange algorithm
     J. Chem. Phys. 2021 155(10), 104109
     doi.org/10.1063/5.0058766
  6. Neese, F.
     The SHARK Integral Generation and Digestion System
     J. Comp. Chem. 2022 44(3), 381
     doi.org/10.1002/jcc.26942

List of suggested additional citations. These are papers that are important in the 'surrounding' of 
of this run, or papers that preceded the highly important papers. If you like your results we are grateful for a citation.

  1. Izsak, R.; Neese, F.
     An overlap fitted chain of spheres exchange method
     J. Chem. Phys. 2011 135 , 144105
     doi.org/10.1063/1.3646921
  2. Izsak, R.; Hansen, A.; Neese, F.
     The resolution of identity and chain of spheres approximations for the LPNO-CCSD singles Fock term
     Molec. Phys. 2012 110 , 2413-2417
     doi.org/10.1080/00268976.2012.687466
  3. Neese, F.
     The ORCA program system
     WIRES Comput. Molec. Sci. 2012 2(1), 73-78
     doi.org/10.1002/wcms.81
  4. Izsak, R.; Neese, F.; Klopper, W.
     Robust fitting techniques in the chain of spheres approximation to the Fock exchange: The role of the complementary space
     J. Chem. Phys. 2013 139 , 
     doi.org/10.1063/1.4819264
  5. Neese, F.
     Software update: the ORCA program system, version 4.0
     WIRES Comput. Molec. Sci. 2018 8(1), 1-6
     doi.org/10.1002/wcms.1327
  6. Neese, F.; Wennmohs, F.; Becker, U.; Riplinger, C.
     The ORCA quantum chemistry program package
     J. Chem. Phys. 2020 152(22), 224108
     doi.org/10.1063/5.0004608
  7. Neese, F.
     Software update: The ORCA program system—Version 5.0
     WIRES Comput. Molec. Sci. 2022 12(1), e1606
     doi.org/10.1002/wcms.1606

List of optional additional citations

  1. Neese, F.
     Approximate second-order SCF convergence for spin unrestricted wavefunctions
     Chem. Phys. Lett. 2000 325(1-3), 93-98
     doi.org/10.1016/s0009-2614(00)00662-x

Timings for individual modules:

Sum of individual times          ...       12.143 sec (=   0.202 min)
Startup calculation              ...        1.193 sec (=   0.020 min)   9.8 %
SCF iterations                   ...        6.715 sec (=   0.112 min)  55.3 %
Property calculations            ...        0.462 sec (=   0.008 min)   3.8 %
SCF Gradient evaluation          ...        3.774 sec (=   0.063 min)  31.1 %
                             ****ORCA TERMINATED NORMALLY****
TOTAL RUN TIME: 0 days 0 hours 0 minutes 12 seconds 772 msec
