
                                 *****************
                                 * O   R   C   A *
                                 *****************

                                            #,                                       
                                            ###                                      
                                            ####                                     
                                            #####                                    
                                            ######                                   
                                           ########,                                 
                                     ,,################,,,,,                         
                               ,,#################################,,                 
                          ,,##########################################,,             
                       ,#########################################, ''#####,          
                    ,#############################################,,   '####,        
                  ,##################################################,,,,####,       
                ,###########''''           ''''###############################       
              ,#####''   ,,,,##########,,,,          '''####'''          '####       
            ,##' ,,,,###########################,,,                        '##       
           ' ,,###''''                  '''############,,,                           
         ,,##''                                '''############,,,,        ,,,,,,###''
      ,#''                                            '''#######################'''  
     '                                                          ''''####''''         
             ,#######,   #######,   ,#######,      ##                                
            ,#'     '#,  ##    ##  ,#'     '#,    #''#        ,####,    ,#,          
            ##       ##  ##   ,#'  ##            #'  '#       #'       ,# #          
            ##       ##  #######   ##           ,######,      #####,      #          
            '#,     ,#'  ##    ##  '#,     ,#' ,#      #,     #,   #      #          
             '#######'   ##     ##  '#######'  #'      '#     '####' #    #          



                #########################################################
                #                        -***-                          #
                #          Department of theory and spectroscopy        #
                #                                                       #
                #                      Frank Neese                      #
                #                                                       #
                #     Directorship, Architecture, Infrastructure        #
                #                    SHARK, DRIVERS                     #
                #        Core code/Algorithms in most modules           #
                #                                                       #
                #        Max Planck Institute fuer Kohlenforschung      #
                #                Kaiser Wilhelm Platz 1                 #
                #                 D-45470 Muelheim/Ruhr                 #
                #                      Germany                          #
                #                                                       #
                #                  All rights reserved                  #
                #                        -***-                          #
                #########################################################


                         Program Version 6.1.0  -  RELEASE   -
                                (GIT: $679e74b$)
                          ($2025-06-10 18:02:51 +0200$)


 With contributions from (in alphabetic order):
[Max-Planck-Institut fuer Kohlenforschung]                               
  Daniel Aravena         : Magnetic Suceptibility                        
  Michael Atanasov       : Ab Initio Ligand Field Theory (pilot matlab implementation)
  Alexander A. Auer      : GIAO ZORA, VPT2 properties, NMR spectrum      
  Ute Becker             : All parallelization in ORCA, NUMFREQ, NUMCALC 
  Giovanni Bistoni       : ED, misc. LED, open-shell LED, HFLD           
  Dmytro Bykov           : pre 5.0 version of the SCF Hessian            
  Marcos Casanova-Páez   : Triplet and SCS-CIS(D). UHF-(DLPNO)-IP/EA/STEOM-CCSD. UHF-CVS-IP/STEOM-CCSD   
  Vijay G. Chilkuri      : MRCI spin determinant printing, contributions to CSF-ICE 
  Pauline Colinet        : FMM embedding                                 
  Dipayan Datta          : RHF DLPNO-CCSD density                        
  Achintya Kumar Dutta   : EOM-CC, STEOM-CC                              
  Nicolas Foglia         : Exact transition moments, OPA infrastructure, MCD improvements    
  Dmitry Ganyushin       : Spin-Orbit,Spin-Spin,Magnetic field MRCI      
  Miquel Garcia-Rates    : C-PCM and meta-GGA Hessian, CCSD/C-PCM, Gaussian charge scheme 
  Tiago L. C. Gouveia    : GS-ROHF, GS-ROCIS                             
  Yang Guo               : DLPNO-NEVPT2, F12-NEVPT2, CIM, IAO-localization        
  Andreas Hansen         : Spin unrestricted coupled pair/coupled cluster methods 
  Ingolf Harden          : AUTO-CI MPn and infrastructure                
  Benjamin Helmich-Paris : MC-RPA, TRAH-(SCF,CASSCF), AVAS, COSX integrals, SCF dyn. polar., MC-PDFT, srDFT 
  Lee Huntington         : MR-EOM, pCC                                   
  Robert Izsak           : Overlap fitted RIJCOSX, COSX-SCS-MP3, EOM     
  Riya Kayal             : Wick's Theorem for AUTO-CI, AUTO-CI UHF-CCSDT 
  Emily Kempfer          : AUTO-CI RHF CISDT and CCSDT, approximate NEVPT4
  Christian Kollmar      : KDIIS, OOCD, Brueckner-CCSD(T), CCSD density, CASPT2, CASPT2-K, improved NEVPT2 
  Axel Koslowski         : Symmetry handling                             
  Simone Kossmann        : meta-GGA functionals, TD-DFT gradient, OOMP2, (MP2 Hessian; deprecated post 5.0) 
  Lucas Lang             : DCDCAS, Hyperfine gauge corrections, ICE-SOC+SSC
  Marvin Lechner         : AUTO-CI (C++ implementation), FIC-MRCC        
  Spencer Leger          : CASSCF response                               
  Dagmar Lenk            : GEPOL surface, SMD, ORCA-2-JSON               
  Dimitrios Liakos       : Extrapolation schemes; Compound Job, Property file
  Dimitrios Manganas     : Further ROCIS development; embedding schemes. LFT, Crystal Embedding 
  Dimitrios Pantazis     : SARC Basis sets                               
  Anastasios Papadopoulos: AUTO-CI, single reference methods and gradients 
  Taras Petrenko         : pre 6.0 DFT Hessian and TD-DFT gradient,  ECA, NRVS 
  Petra Pikulova         : Analytic Raman intensities                    
  Peter Pinski           : DLPNO-MP2, DLPNO-MP2 Gradient                 
  Shashank Vittal Rao    : ES-AILFT, MagRelax                            
  Christoph Reimann      : Effective Core Potentials                     
  Marius Retegan         : Local ZFS, SOC                                
  Christoph Riplinger    : Optimizer, TS searches, QM/MM, DLPNO-CCSD(T), (RO)-DLPNO pert. Triples 
  Michael Roemelt        : Original ROCIS implementation, recursive CI coupling coefficients
  Masaaki Saitow         : Open-shell DLPNO-CCSD energy and density      
  Barbara Sandhoefer     : DKH picture change effects                    
  Yorick L. A. Schmerwitz: GMF and freeze-and-release deltaSCF, NEB S-IDPP initial path                    
  Kantharuban Sivalingam : CASSCF convergence/infrastructure, NEVPT2, NEVPT3, NEVPT4(SD), FIC-MRCI and CEPA variants
  Bernardo de Souza      : ESD, SOC TD-DFT                               
  Georgi L. Stoychev     : AutoAux, RI-MP2 NMR, DLPNO-MP2 response, X2C  
  Van Anh Tran           : RI-MP2 g-tensors                              
  Willem Van den Heuvel  : Paramagnetic NMR                              
  Zikuan Wang            : NOTCH, Electric field optimization            
  Frank Wennmohs         : Technical directorship and infrastructure     
  Hang Xu                : AUTO-CI-Response properties                   
                                                                         
[FACCTs GmbH]                                                            
  Markus Bursch, Nicolas Foglia, Miquel Garcia-Rates, Ingolf Harden, Hagen Neugebauer, Anastasios Papadopoulos, 
  Christoph Riplinger, Bernardo de Souza, Georgi L. Stoychev                                                    
                                                                 
  APM, various basis sets, CI-OPT, improved COSX, DLPNO-Multilevel,           
  DOCKER, DRACO, updates on ESD, Fragmentator, GOAT, IRC, LR-CPCM, L-BFGS, MBIS, meta-GGA TD-DFT gradient, ML-optimized integration grids, 
  MM, NACMEs, nearIR, NEB, NEB-TS, NL-DFT gradient (VV10), 2- and 3-layer-ONIOM, interface openCOSMO-RS, QMMM,   
  Crystal-QMMM, RESP, rigid body optimization, SF, symmetry and pop. for TD-DFT, various functionals, SOLVATOR                                   
                                                                         
[Other institutions]                                                     
  V. Asgeirsson          : NEB                                           
  Christoph Bannwarth    : sTDA-DFT, sTD-DFT, PBEh-3c, B97-3c, D3        
  Giovanni Bistoni       : ETS/NOCV, ADLD/ADEX, COVALED                  
  Martin Brehm           : Molecular dynamics                            
  Ronald Cardenas        : ETS/NOCV                                      
  Martina Colucci        : COVALED                                       
  Sebastian Ehlert       : rSCAN, r2SCAN, r2SCAN-3c, D4, dhf basis sets  
  Marvin Friede          : D4 for Fr, Ra, Ac-Lr                          
  Lars Goerigk           : TD-DFT with DH, B97 family of functionals     
  Stefan Grimme          : VdW corrections, initial TS optimization, DFT functionals, gCP, sTDA/sTD-DF 
  Waldemar Hujo          : DFT-NL                                        
  H. Jonsson             : NEB                                           
  Holger Kruse           : gCP                                           
  Marcel Mueller         : wB97X-3c, vDZP basis set                      
  Hagen Neugebauer       : wr2SCAN, Native XTB                           
  Gianluca Regni         : ADLD/ADEX                                     
  Tobias Risthaus        : pre 6.0 range-separated hybrid DFT and stability analysis
  Lukas Wittmann         : regularized MP2, r2SCAN double-hybrids, wr2SCAN        
                                                                         
We gratefully acknowledge several colleagues who have allowed us to      
interface, adapt or use parts of their codes:                            
  Ed Valeev, F. Pavosevic, A. Kumar             : LibInt (2-el integral package), F12 methods 
  Garnet Chan, S. Sharma, J. Yang, R. Olivares  : DMRG                   
  Ulf Ekstrom                                   : XCFun DFT Library      
  Mihaly Kallay                                 : mrcc  (arbitrary order and MRCC methods)
  Frank Weinhold                                : gennbo (NPA and NBO analysis)           
  Simon Mueller                                 : openCOSMO-RS                            
  Christopher J. Cramer and Donald G. Truhlar   : smd solvation model                     
  S Lehtola, MJT Oliveira, MAL Marques          : LibXC Library                           
  Liviu Ungur et al                             : ANISO software                          


 Your calculation uses the libint2 library for the computation of 2-el integrals
 For citations please refer to: http://libint.valeyev.net

 Your ORCA version has been built with support for libXC version: 7.0.0
 For citations please refer to: https://libxc.gitlab.io

 This ORCA versions uses:
   CBLAS   interface :  Fast vector & matrix operations
   LAPACKE interface :  Fast linear algebra routines
   SCALAPACK package :  Parallel linear algebra routines
   Shared memory     :  Shared parallel matrices
   BLAS/LAPACK       :  OpenBLAS 0.3.29  USE64BITINT DYNAMIC_ARCH NO_AFFINITY Zen SINGLE_THREADED
        Core in use  :  Zen
   Copyright (c) 2011-2014, The OpenBLAS Project


  ***********************************
  * Starting time: Wed Sep 10 13:42:20 2025
  * Host name:     wyk-Server
  * Process ID:    2319849
  * Working dir.:  /home/wyk/Documents/code/openQDC/MGMR/singlepointcalc/109/prod
  ***********************************

Your calculation utilizes the atom-pairwise dispersion correction
with the Becke-Johnson damping scheme (D3BJ)


Warning: RI is on but no J-basis has been assigned. Assigning Def2/J (nothing to worry about!)
================================================================================

----- Orbital basis set information -----
Your calculation utilizes the basis: def2-SVP
   F. Weigend and R. Ahlrichs, Phys. Chem. Chem. Phys. 7, 3297 (2005).

----- AuxJ basis set information -----
Your calculation utilizes the auxiliary basis: def2/J
   H-Rn: F. Weigend, Phys. Chem. Chem. Phys. 8, 1057 (2006).
   Fr-Lr: K. Eichkorn, F. Weigend, O. Treutler, R. Ahlrichs; Theor. Chem. Acc. 97, 119 (1997).

================================================================================
                                        WARNINGS
                       Please study these warnings very carefully!
================================================================================


================================================================================
                                       INPUT FILE
================================================================================
NAME = orca.inp
|  1> ! B3LYP def2-SVP d3 EnGrad 
|  2> %pal nprocs 6 end 
|  3> *xyz 0 1 
|  4> C   -1.18563486959722 -0.50959428838702 -0.6203405811901
|  5> O   -0.49725855465005 0.69330612843103 -0.38884905769359
|  6> Mg   0.04509996446242 0.8819704954604 1.38443030422138
|  7> Br   0.92162717688716 1.76326974136395 3.39093502470414
|  8> C   -0.50949015837283 -1.30777465461565 -1.74841709602407
|  9> C   -0.71164710582305 -2.68572354425068 -1.91435947655938
| 10> C   0.2846879920172 -0.62533564171516 -2.67688234627729
| 11> C   -0.13034580159474 -3.36778843383925 -2.98575407155378
| 12> H   -1.31979959880513 -3.2400719053361 -1.19598658096993
| 13> C   0.86311959870358 -1.30485709324127 -3.75273944732005
| 14> H   0.43699386193019 0.4451886056792 -2.53553030052737
| 15> C   0.65883239499263 -2.67833673635325 -3.91142522263301
| 16> H   -0.2934947168676 -4.44312929144234 -3.09618373329369
| 17> H   1.47761276053211 -0.75739148487117 -4.4726061214807
| 18> H   1.11242573554622 -3.21093286248644 -4.75124907295202
| 19> C   -2.63062956851741 -0.22714545862229 -1.07306426753694
| 20> C   -3.60682229415872 -1.23448673732418 -1.10529820606899
| 21> C   -2.97360880010363 1.05746445097984 -1.50757288443882
| 22> C   -4.90062716085256 -0.96016884859275 -1.55179231730042
| 23> H   -3.36089381600307 -2.24455672470058 -0.77080606626171
| 24> C   -4.26770351923433 1.33341872612471 -1.96142609261285
| 25> H   -2.20571475398664 1.83141926771353 -1.4835236404316
| 26> C   -5.23660098715331 0.32770622259564 -1.98297439242309
| 27> H   -5.65029085940288 -1.75589607232279 -1.56352503634254
| 28> H   -4.51899376918295 2.34218462622994 -2.29999832610789
| 29> H   -6.24885976660058 0.54319075929209 -2.33434126741854
| 30> C   -1.14042087644558 -1.25974604637903 0.73499629001096
| 31> C   -2.1201614178418 -1.02609615044238 1.72308450266829
| 32> C   0.02263026049651 -1.97170411145514 1.10551429172019
| 33> C   -1.947440496537 -1.49938844190715 3.0301529314989
| 34> H   -3.02282179806089 -0.47246510305395 1.45768082568814
| 35> C   0.18885239126278 -2.44183798825952 2.4131590512444
| 36> H   0.79327426717667 -2.15809965846277 0.35442373380468
| 37> C   -0.79547215939473 -2.20900689089344 3.37908390734854
| 38> H   -2.71719172930068 -1.30195218568652 3.77986468297844
| 39> H   1.09721831052741 -2.98802928454661 2.67811129635176
| 40> H   -0.65800187604747 -2.56676848468288 4.40148243317853
| 41> *
| 42> 
| 43>                          ****END OF INPUT****
================================================================================

                     *******************************
                     * Energy+Gradient Calculation *
                     *******************************

---------------------------------
CARTESIAN COORDINATES (ANGSTROEM)
---------------------------------
  C     -1.185635   -0.509594   -0.620341
  O     -0.497259    0.693306   -0.388849
  Mg     0.045100    0.881970    1.384430
  Br     0.921627    1.763270    3.390935
  C     -0.509490   -1.307775   -1.748417
  C     -0.711647   -2.685724   -1.914359
  C      0.284688   -0.625336   -2.676882
  C     -0.130346   -3.367788   -2.985754
  H     -1.319800   -3.240072   -1.195987
  C      0.863120   -1.304857   -3.752739
  H      0.436994    0.445189   -2.535530
  C      0.658832   -2.678337   -3.911425
  H     -0.293495   -4.443129   -3.096184
  H      1.477613   -0.757391   -4.472606
  H      1.112426   -3.210933   -4.751249
  C     -2.630630   -0.227145   -1.073064
  C     -3.606822   -1.234487   -1.105298
  C     -2.973609    1.057464   -1.507573
  C     -4.900627   -0.960169   -1.551792
  H     -3.360894   -2.244557   -0.770806
  C     -4.267704    1.333419   -1.961426
  H     -2.205715    1.831419   -1.483524
  C     -5.236601    0.327706   -1.982974
  H     -5.650291   -1.755896   -1.563525
  H     -4.518994    2.342185   -2.299998
  H     -6.248860    0.543191   -2.334341
  C     -1.140421   -1.259746    0.734996
  C     -2.120161   -1.026096    1.723085
  C      0.022630   -1.971704    1.105514
  C     -1.947440   -1.499388    3.030153
  H     -3.022822   -0.472465    1.457681
  C      0.188852   -2.441838    2.413159
  H      0.793274   -2.158100    0.354424
  C     -0.795472   -2.209007    3.379084
  H     -2.717192   -1.301952    3.779865
  H      1.097218   -2.988029    2.678111
  H     -0.658002   -2.566768    4.401482

----------------------------
CARTESIAN COORDINATES (A.U.)
----------------------------
  NO LB      ZA    FRAG     MASS         X           Y           Z
   0 C     6.0000    0    12.011   -2.240525   -0.962994   -1.172274
   1 O     8.0000    0    15.999   -0.939682    1.310159   -0.734818
   2 Mg   12.0000    0    24.305    0.085227    1.666683    2.616194
   3 Br   35.0000    0    79.900    1.741623    3.332097    6.407939
   4 C     6.0000    0    12.011   -0.962797   -2.471336   -3.304029
   5 C     6.0000    0    12.011   -1.344818   -5.075282   -3.617615
   6 C     6.0000    0    12.011    0.537982   -1.181713   -5.058575
   7 C     6.0000    0    12.011   -0.246318   -6.364198   -5.642257
   8 H     1.0000    0     1.008   -2.494060   -6.122849   -2.260087
   9 C     6.0000    0    12.011    1.631060   -2.465823   -7.091650
  10 H     1.0000    0     1.008    0.825799    0.841285   -4.791458
  11 C     6.0000    0    12.011    1.245013   -5.061323   -7.391522
  12 H     1.0000    0     1.008   -0.554625   -8.396298   -5.850939
  13 H     1.0000    0     1.008    2.792283   -1.431262   -8.452001
  14 H     1.0000    0     1.008    2.102180   -6.067784   -8.978560
  15 C     6.0000    0    12.011   -4.971169   -0.429243   -2.027798
  16 C     6.0000    0    12.011   -6.815906   -2.332842   -2.088711
  17 C     6.0000    0    12.011   -5.619306    1.998318   -2.848900
  18 C     6.0000    0    12.011   -9.260843   -1.814456   -2.932462
  19 H     1.0000    0     1.008   -6.351169   -4.241598   -1.456612
  20 C     6.0000    0    12.011   -8.064791    2.519796   -3.706558
  21 H     1.0000    0     1.008   -4.168197    3.460881   -2.803453
  22 C     6.0000    0    12.011   -9.895742    0.619275   -3.747279
  23 H     1.0000    0     1.008  -10.677502   -3.318163   -2.954634
  24 H     1.0000    0     1.008   -8.539661    4.426087   -4.346367
  25 H     1.0000    0     1.008  -11.808634    1.026482   -4.411266
  26 C     6.0000    0    12.011   -2.155083   -2.380575    1.388942
  27 C     6.0000    0    12.011   -4.006524   -1.939041    3.256158
  28 C     6.0000    0    12.011    0.042765   -3.725981    2.089119
  29 C     6.0000    0    12.011   -3.680129   -2.833434    5.726159
  30 H     1.0000    0     1.008   -5.712305   -0.892830    2.754618
  31 C     6.0000    0    12.011    0.356879   -4.614405    4.560210
  32 H     1.0000    0     1.008    1.499071   -4.078217    0.669764
  33 C     6.0000    0    12.011   -1.503225   -4.174418    6.385543
  34 H     1.0000    0     1.008   -5.134748   -2.460333    7.142909
  35 H     1.0000    0     1.008    2.073442   -5.646557    5.060897
  36 H     1.0000    0     1.008   -1.243443   -4.850489    8.317596

--------------------------------
INTERNAL COORDINATES (ANGSTROEM)
--------------------------------
 C      0   0   0     0.000000000000     0.00000000     0.00000000
 O      1   0   0     1.405140451774     0.00000000     0.00000000
 Mg     2   1   0     1.863938492020   112.70155594     0.00000000
 Br     3   2   1     2.360307079232   162.67008450   186.15644858
 C      1   2   3     1.538447331198   110.46531910   235.68153518
 C      5   1   2     1.402550336889   122.21714795   159.98346320
 C      5   1   2     1.399460489551   118.87400158   336.96628199
 C      6   5   1     1.396785630686   120.69799050   177.06102797
 H      6   5   1     1.092342060563   120.06760862   356.37696622
 C      7   5   1     1.397784328343   120.55861078   183.08822352
 H      7   5   1     1.090504306781   118.16238915     3.09689167
 C     10   7   5     1.397626833933   120.30782680   359.75344603
 H      8   6   5     1.093238418085   119.71521280   179.62165398
 H     10   7   5     1.093402243847   119.72899620   179.72990696
 H     12  10   7     1.093027745179   120.35977724   180.12604861
 C      1   2   3     1.540371954277   110.54922504   117.47536549
 C     16   1   2     1.403113579211   121.85446439   193.31237645
 C     16   1   2     1.398804886791   119.32102924    15.48414260
 C     17  16   1     1.395900543922   120.73778787   181.63267103
 H     17  16   1     1.092065560010   120.02088223     2.15826495
 C     18  16   1     1.398861908346   120.58249040   178.11809163
 H     18  16   1     1.090525419486   118.18144185   358.23159777
 C     21  18  16     1.396668991680   120.31273263     0.16860934
 H     19  17  16     1.093304684068   119.73170073   180.42050248
 H     21  18  16     1.093337362495   119.67673036   180.15127916
 H     23  21  18     1.092959332714   120.36384727   179.79959844
 C      1   2   3     1.549745140219   104.83329890   356.70926163
 C     27   1   2     1.410957872624   120.79925996    86.68311882
 C     27   1   2     1.413101490750   119.81485812   279.77392389
 C     28  27   1     1.400809047466   120.78814600   192.25917619
 H     28  27   1     1.091669460232   119.20155599    12.49652400
 C     29  27   1     1.399496508029   120.79712389   167.87534244
 H     29  27   1     1.092141250556   119.10625065   347.50124339
 C     30  28  27     1.397262401565   120.41506523     0.23564193
 H     30  28  27     1.092504345949   119.49687207   179.68553795
 H     32  29  27     1.092544400749   119.55664911   180.13928021
 H     34  30  28     1.091874618449   120.26768587   179.28722558

---------------------------
INTERNAL COORDINATES (A.U.)
---------------------------
 C      0   0   0     0.000000000000     0.00000000     0.00000000
 O      1   0   0     2.655330633547     0.00000000     0.00000000
 Mg     2   1   0     3.522333280392   112.70155594     0.00000000
 Br     3   2   1     4.460333971703   162.67008450   186.15644858
 C      1   2   3     2.907244127426   110.46531910   235.68153518
 C      5   1   2     2.650436025759   122.21714795   159.98346320
 C      5   1   2     2.644597060494   118.87400158   336.96628199
 C      6   5   1     2.639542309793   120.69799050   177.06102797
 H      6   5   1     2.064227339028   120.06760862   356.37696622
 C      7   5   1     2.641429574856   120.55861078   183.08822352
 H      7   5   1     2.060754487677   118.16238915     3.09689167
 C     10   7   5     2.641131953553   120.30782680   359.75344603
 H      8   6   5     2.065921209262   119.71521280   179.62165398
 H     10   7   5     2.066230795085   119.72899620   179.72990696
 H     12  10   7     2.065523095166   120.35977724   180.12604861
 C      1   2   3     2.910881137956   110.54922504   117.47536549
 C     16   1   2     2.651500399494   121.85446439   193.31237645
 C     16   1   2     2.643358150825   119.32102924    15.48414260
 C     17  16   1     2.637869738205   120.73778787   181.63267103
 H     17  16   1     2.063704828706   120.02088223     2.15826495
 C     18  16   1     2.643465905949   120.58249040   178.11809163
 H     18  16   1     2.060794384908   118.18144185   358.23159777
 C     21  18  16     2.639321894014   120.31273263     0.16860934
 H     19  17  16     2.066046433822   119.73170073   180.42050248
 H     21  18  16     2.066108187100   119.67673036   180.15127916
 H     23  21  18     2.065393814343   120.36384727   179.79959844
 C      1   2   3     2.928593892389   104.83329890   356.70926163
 C     27   1   2     2.666323965759   120.79925996    86.68311882
 C     27   1   2     2.670374816953   119.81485812   279.77392389
 C     28  27   1     2.647145465629   120.78814600   192.25917619
 H     28  27   1     2.062956308605   119.20155599    12.49652400
 C     29  27   1     2.644665125555   120.79712389   167.87534244
 H     29  27   1     2.063847863109   119.10625065   347.50124339
 C     30  28  27     2.640443276183   120.41506523     0.23564193
 H     30  28  27     2.064534013963   119.49687207   179.68553795
 H     32  29  27     2.064609706565   119.55664911   180.13928021
 H     34  30  28     2.063344001449   120.26768587   179.28722558

---------------------
BASIS SET INFORMATION
---------------------
There are 5 groups of distinct atoms

 Group   1 Type C   : 7s4p1d contracted to 3s2p1d pattern {511/31/1}
 Group   2 Type O   : 7s4p1d contracted to 3s2p1d pattern {511/31/1}
 Group   3 Type Mg  : 10s7p1d contracted to 4s3p1d pattern {5311/511/1}
 Group   4 Type Br  : 14s10p6d contracted to 5s4p3d pattern {63311/5311/411}
 Group   5 Type H   : 4s1p contracted to 2s1p pattern {31/1}

Atom   0C    basis set group =>   1
Atom   1O    basis set group =>   2
Atom   2Mg   basis set group =>   3
Atom   3Br   basis set group =>   4
Atom   4C    basis set group =>   1
Atom   5C    basis set group =>   1
Atom   6C    basis set group =>   1
Atom   7C    basis set group =>   1
Atom   8H    basis set group =>   5
Atom   9C    basis set group =>   1
Atom  10H    basis set group =>   5
Atom  11C    basis set group =>   1
Atom  12H    basis set group =>   5
Atom  13H    basis set group =>   5
Atom  14H    basis set group =>   5
Atom  15C    basis set group =>   1
Atom  16C    basis set group =>   1
Atom  17C    basis set group =>   1
Atom  18C    basis set group =>   1
Atom  19H    basis set group =>   5
Atom  20C    basis set group =>   1
Atom  21H    basis set group =>   5
Atom  22C    basis set group =>   1
Atom  23H    basis set group =>   5
Atom  24H    basis set group =>   5
Atom  25H    basis set group =>   5
Atom  26C    basis set group =>   1
Atom  27C    basis set group =>   1
Atom  28C    basis set group =>   1
Atom  29C    basis set group =>   1
Atom  30H    basis set group =>   5
Atom  31C    basis set group =>   1
Atom  32H    basis set group =>   5
Atom  33C    basis set group =>   1
Atom  34H    basis set group =>   5
Atom  35H    basis set group =>   5
Atom  36H    basis set group =>   5
---------------------------------
AUXILIARY/J BASIS SET INFORMATION
---------------------------------
There are 5 groups of distinct atoms

 Group   1 Type C   : 12s5p4d2f1g contracted to 6s4p3d1f1g pattern {711111/2111/211/2/1}
 Group   2 Type O   : 12s5p4d2f1g contracted to 6s4p3d1f1g pattern {711111/2111/211/2/1}
 Group   3 Type Mg  : 14s5p5d2f1g contracted to 8s4p4d1f1g pattern {71111111/2111/2111/2/1}
 Group   4 Type Br  : 19s5p5d3f1g contracted to 8s4p3d2f1g pattern {121111111/2111/311/21/1}
 Group   5 Type H   : 5s2p1d contracted to 3s1p1d pattern {311/2/1}

Atom   0C    basis set group =>   1
Atom   1O    basis set group =>   2
Atom   2Mg   basis set group =>   3
Atom   3Br   basis set group =>   4
Atom   4C    basis set group =>   1
Atom   5C    basis set group =>   1
Atom   6C    basis set group =>   1
Atom   7C    basis set group =>   1
Atom   8H    basis set group =>   5
Atom   9C    basis set group =>   1
Atom  10H    basis set group =>   5
Atom  11C    basis set group =>   1
Atom  12H    basis set group =>   5
Atom  13H    basis set group =>   5
Atom  14H    basis set group =>   5
Atom  15C    basis set group =>   1
Atom  16C    basis set group =>   1
Atom  17C    basis set group =>   1
Atom  18C    basis set group =>   1
Atom  19H    basis set group =>   5
Atom  20C    basis set group =>   1
Atom  21H    basis set group =>   5
Atom  22C    basis set group =>   1
Atom  23H    basis set group =>   5
Atom  24H    basis set group =>   5
Atom  25H    basis set group =>   5
Atom  26C    basis set group =>   1
Atom  27C    basis set group =>   1
Atom  28C    basis set group =>   1
Atom  29C    basis set group =>   1
Atom  30H    basis set group =>   5
Atom  31C    basis set group =>   1
Atom  32H    basis set group =>   5
Atom  33C    basis set group =>   1
Atom  34H    basis set group =>   5
Atom  35H    basis set group =>   5
Atom  36H    basis set group =>   5


           ************************************************************
           *        Program running with 6 parallel MPI-processes     *
           *              working on a common directory               *
           ************************************************************
------------------------------------------------------------------------------
                             ORCA STARTUP CALCULATIONS
                           -- RI-GTO INTEGRALS CHOSEN --
------------------------------------------------------------------------------
------------------------------------------------------------------------------
                   ___                                                        
                  /   \      - P O W E R E D   B Y -                         
                 /     \                                                     
                 |  |  |   _    _      __       _____    __    __             
                 |  |  |  | |  | |    /  \     |  _  \  |  |  /  |          
                  \  \/   | |  | |   /    \    | | | |  |  | /  /          
                 / \  \   | |__| |  /  /\  \   | |_| |  |  |/  /          
                |  |  |   |  __  | /  /__\  \  |    /   |      \           
                |  |  |   | |  | | |   __   |  |    \   |  |\   \          
                \     /   | |  | | |  |  |  |  | |\  \  |  | \   \       
                 \___/    |_|  |_| |__|  |__|  |_| \__\ |__|  \__/        
                                                                              
                      - O R C A' S   B I G   F R I E N D -                    
                                      &                                       
                       - I N T E G R A L  F E E D E R -                       
                                                                              
 v1 FN, 2020, v2 2021, v3 2022-2024                                           
------------------------------------------------------------------------------


----------------------
SHARK INTEGRAL PACKAGE
----------------------

Number of atoms                             ...     37
Number of basis functions                   ...    405
Number of shells                            ...    185
Maximum angular momentum                    ...      2
Integral batch strategy                     ... SHARK/LIBINT Hybrid
RI-J (if used) integral strategy            ... SPLIT-RIJ (Revised 2003 algorithm where possible)
Printlevel                                  ...      1
Contraction scheme used                     ... SEGMENTED contraction
Prescreening option                         ... SCHWARTZ
   Thresh                                   ... 2.500e-11
   Tcut                                     ... 2.500e-12
   Tpresel                                  ... 2.500e-12 
Coulomb Range Separation                    ... NOT USED
Exchange Range Separation                   ... NOT USED
Multipole approximations                    ... NOT USED
Finite Nucleus Model                        ... NOT USED
CABS basis                                  ... NOT available
Auxiliary Coulomb fitting basis             ... AVAILABLE
   # of basis functions in Aux-J            ...   1259
   # of shells in Aux-J                     ...    411
   Maximum angular momentum in Aux-J        ...      4
Auxiliary J/K fitting basis                 ... NOT available
Auxiliary Correlation fitting basis         ... NOT available
Auxiliary 'external' fitting basis          ... NOT available

Checking pre-screening integrals            ... done (  0.0 sec) Dimension = 185
   => SHARK Basis and OBASIS are compatible. Storing Pre-screening
Shell pair information
Shell pair cut-off parameter TPreSel        ...   2.5e-12
Total number of shell pairs                 ...     17205
Shell pairs after pre-screening             ...     13283
Total number of primitive shell pairs       ...     66434
Primitive shell pairs kept                  ...     31981
          la=0 lb=0:   3918 shell pairs
          la=1 lb=0:   4850 shell pairs
          la=1 lb=1:   1566 shell pairs
          la=2 lb=0:   1706 shell pairs
          la=2 lb=1:   1069 shell pairs
          la=2 lb=2:    174 shell pairs

Checking whether 4 symmetric matrices of dimension 405 fit in memory
:Max Core in MB      =   4096.00
 MB in use           =     20.06
 MB left             =   4075.94
 MB needed           =      2.51
 Data fit in memory  = YES
Calculating RI/J V-Matrix + Cholesky decomp.... done (  0.1 sec)
Calculating Nuclear repulsion               ... done (  0.0 sec) ENN=   2178.979407313559 Eh

Diagonalization of the overlap matrix:
Smallest eigenvalue                        ... 2.544e-04
Time for diagonalization                   ...    0.020 sec
Threshold for overlap eigenvalues          ... 1.000e-07
Number of eigenvalues below threshold      ... 0
Time for construction of square roots      ...    0.009 sec
Total time needed                          ...    0.031 sec

-------------------
DFT GRID GENERATION
-------------------

General Integration Accuracy     IntAcc      ... 4.388
Radial Grid Type                 RadialGrid  ... OptM3 with GC (2021)
Angular Grid (max. ang.)         AngularGrid ... 4 (Lebedev-302)
Angular grid pruning method      GridPruning ... 4 (adaptive)
Weight generation scheme         WeightScheme... mBecke (2022)
Basis function cutoff            BFCut       ... 1.0000e-11
Integration weight cutoff        WCut        ... 1.0000e-14
Partially contracted basis set               ... off
Rotationally invariant grid construction     ... off
Angular grids for H and He will be reduced by one unit
Core-polarized basis detected: some atoms will have their core
                               angular grid increased.

Total number of grid points                  ...   184978
Total number of batches                      ...     2909
Average number of points per batch           ...       63
Average number of grid points per atom       ...     4999

--------------------
COSX GRID GENERATION
--------------------

GRIDX 1
-------
General Integration Accuracy     IntAcc      ... 3.816
Radial Grid Type                 RadialGrid  ... OptM3 with GC (2021)
Angular Grid (max. ang.)         AngularGrid ... 1 (Lebedev-50)
Angular grid pruning method      GridPruning ... 4 (adaptive)
Weight generation scheme         WeightScheme... mBecke (2022)
Basis function cutoff            BFCut       ... 1.0000e-11
Integration weight cutoff        WCut        ... 1.0000e-14
Partially contracted basis set               ... on
Rotationally invariant grid construction     ... off
Angular grids for H and He will be reduced by one unit
Core-polarized basis detected: some atoms will have their core
                               angular grid increased.

Total number of grid points                  ...    29079
Total number of batches                      ...      243
Average number of points per batch           ...      119
Average number of grid points per atom       ...      786
UseSFitting                                  ... on

GRIDX 2
-------
General Integration Accuracy     IntAcc      ... 4.020
Radial Grid Type                 RadialGrid  ... OptM3 with GC (2021)
Angular Grid (max. ang.)         AngularGrid ... 2 (Lebedev-110)
Angular grid pruning method      GridPruning ... 4 (adaptive)
Weight generation scheme         WeightScheme... mBecke (2022)
Basis function cutoff            BFCut       ... 1.0000e-11
Integration weight cutoff        WCut        ... 1.0000e-14
Partially contracted basis set               ... on
Rotationally invariant grid construction     ... off
Angular grids for H and He will be reduced by one unit
Core-polarized basis detected: some atoms will have their core
                               angular grid increased.

Total number of grid points                  ...    53715
Total number of batches                      ...      441
Average number of points per batch           ...      121
Average number of grid points per atom       ...     1452
UseSFitting                                  ... on

GRIDX 3
-------
General Integration Accuracy     IntAcc      ... 4.338
Radial Grid Type                 RadialGrid  ... OptM3 with GC (2021)
Angular Grid (max. ang.)         AngularGrid ... 3 (Lebedev-194)
Angular grid pruning method      GridPruning ... 4 (adaptive)
Weight generation scheme         WeightScheme... mBecke (2022)
Basis function cutoff            BFCut       ... 1.0000e-11
Integration weight cutoff        WCut        ... 1.0000e-14
Partially contracted basis set               ... on
Rotationally invariant grid construction     ... off
Angular grids for H and He will be reduced by one unit
Core-polarized basis detected: some atoms will have their core
                               angular grid increased.

Total number of grid points                  ...   110688
Total number of batches                      ...      884
Average number of points per batch           ...      125
Average number of grid points per atom       ...     2992
UseSFitting                                  ... on
Grids setup in   2.4 sec
Initializing property integral containers    ... done (  0.0 sec)

SHARK setup successfully completed in   2.7 seconds

Maximum memory used throughout the entire STARTUP-calculation: 65.6 MB


           ************************************************************
           *        Program running with 6 parallel MPI-processes     *
           *              working on a common directory               *
           ************************************************************
-------------------------------------------------------------------------------
                                 ORCA GUESS
                   Start orbitals & Density for SCF / CASSCF
-------------------------------------------------------------------------------

------------
SCF SETTINGS
------------
Hamiltonian:
 Density Functional     Method          .... DFT(GTOs)
 Exchange Functional    Exchange        .... B88
   X-Alpha parameter    XAlpha          ....  0.666667
   Becke's b parameter  XBeta           ....  0.004200
 Correlation Functional Correlation     .... LYP
 LDA part of GGA corr.  LDAOpt          .... VWN-5
 Gradients option       PostSCFGGA      .... off
 Hybrid DFT is turned on
   Fraction HF Exchange ScalHFX         ....  0.200000
   Scaling of DF-GGA-X  ScalDFX         ....  0.720000
   Scaling of DF-GGA-C  ScalDFC         ....  0.810000
   Scaling of DF-LDA-C  ScalLDAC        ....  1.000000
   Perturbative correction              ....  0.000000
   NL short-range parameter             ....  4.800000
 RI-approximation to the Coulomb term is turned on
   Number of AuxJ basis functions       .... 1259
   RIJ-COSX (HFX calculated with COS-X)).... on


General Settings:
 Integral files         IntName         .... orca
 Hartree-Fock type      HFTyp           .... RHF
 Total Charge           Charge          ....    0
 Multiplicity           Mult            ....    1
 Number of Electrons    NEL             ....  184
 Basis Dimension        Dim             ....  405
 Nuclear Repulsion      ENuc            ....   2178.9794073136 Eh

Convergence Acceleration:
 AO-DIIS                CNVDIIS         .... on
   Start iteration      DIISMaxIt       ....    12
   Startup error        DIISStart       ....  0.200000
   # of expansion vecs  DIISMaxEq       ....     5
   Bias factor          DIISBfac        ....   1.050
   Max. coefficient     DIISMaxC        ....  10.000
 MO-DIIS                CNVKDIIS        .... off
 Trust-Rad. Augm. Hess. CNVTRAH         .... auto
   Auto Start mean grad. ratio tolernc. ....  1.125000
   Auto Start start iteration           ....    50
   Auto Start num. interpolation iter.  ....    10
   Max. Number of Micro iterations      ....    24
   Max. Number of Macro iterations      .... Maxiter - #DIIS iter
   Number of Davidson start vectors     ....     2
   Converg. threshold    (grad. norm)   ....   1.000e-05
   Grad. Scal. Fac. for Micro threshold ....   0.100
   Minimum threshold for Micro iter.    ....   1.000e-02
   NR start threshold (gradient norm)   ....   1.000e-04
   Initial trust radius                 ....   0.400
   Minimum AH scaling param. (alpha)    ....   1.000
   Maximum AH scaling param. (alpha)    .... 1000.000
   Quad. conv. algorithm                .... NR
   White noise on init. David. guess    .... on
   Maximum white noise                  ....   0.010
   Pseudo random numbers                .... off
   Inactive MOs                         .... canonical
   Orbital update algorithm             .... Taylor
   Preconditioner                       .... Diag
   Full preconditioner red. dimension   ....   250
 SOSCF                 CNVSOSCF           .... on
   Start iteration     SOSCFMaxIt         ....   150
   Startup grad/error  SOSCFStart         ....  0.003300
   Hessian update      SOSCFHessUp        .... L-BFGS
   Autom. constraints  SOSCFAutoConstrain .... off
 Level Shifting         CNVShift        .... on
   Level shift para.    LevelShift      ....    0.2500
   Turn off err/grad.   ShiftErr        ....    0.0010
 Zerner damping         CNVZerner       .... off
 Static damping         CNVDamp         .... on
   Fraction old density DampFac         ....    0.7000
   Max. Damping (<1)    DampMax         ....    0.9800
   Min. Damping (>=0)   DampMin         ....    0.0000
   Turn off err/grad.   DampErr         ....    0.1000

SCF Procedure:
 Maximum # iterations   MaxIter         ....   125
 SCF integral mode      SCFMode         .... Direct
   Integral package                     .... SHARK and LIBINT hybrid scheme
 Reset frequency        DirectResetFreq ....    20
 Integral Threshold     Thresh          ....  2.500e-11 Eh
 Primitive CutOff       TCut            ....  2.500e-12 Eh

Convergence Tolerance:
 Convergence Check Mode ConvCheckMode   .... Total+1el-Energy
 Convergence forced     ConvForced      .... 0
 Energy Change          TolE            ....  1.000e-08 Eh
 1-El. energy change                    ....  1.000e-05 Eh
 Orbital Gradient       TolG            ....  1.000e-05
 Orbital Rotation angle TolX            ....  1.000e-05
 DIIS Error             TolErr          ....  5.000e-07

------------------------------
INITIAL GUESS: MODEL POTENTIAL
------------------------------
Loading Hartree-Fock densities                     ... done
Calculating cut-offs                               ... done
Initializing the effective Hamiltonian             ... done
Setting up the integral package (SHARK)            ... done
Starting the Coulomb interaction                   ... done (   0.2 sec)
Making the grid                                    ... done (   0.3 sec)
Mapping shells                                     ... done
Starting the XC term evaluation                    ... done (   0.1 sec)
  promolecular density results
     # of electrons  =    183.992021866
     EX              =   -216.061549563
     EC              =     -6.795401268
     EX+EC           =   -222.856950831
Transforming the Hamiltonian                       ... done (   0.0 sec)
Diagonalizing the Hamiltonian                      ... done (   0.0 sec)
Back transforming the eigenvectors                 ... done (   0.0 sec)
Now organizing SCF variables                       ... done
                      ------------------
                      INITIAL GUESS DONE (   0.8 sec)
                      ------------------
             **** ENERGY FILE WAS UPDATED (orca.en.tmp) ****
Finished Guess after   0.9 sec
Maximum memory used throughout the entire GUESS-calculation: 25.8 MB


           ************************************************************
           *        Program running with 6 parallel MPI-processes     *
           *              working on a common directory               *
           ************************************************************

-------------------------------------------------------------------------------------------
                                      ORCA LEAN-SCF
                              memory conserving SCF solver
-------------------------------------------------------------------------------------------

----------------------------------------D-I-I-S--------------------------------------------
Iteration    Energy (Eh)           Delta-E    RMSDP     MaxDP     DIISErr   Damp  Time(sec)
-------------------------------------------------------------------------------------------
               ***  Starting incremental Fock matrix formation  ***
    1    -3580.5603401338380536     0.00e+00  6.13e-03  1.03e-01  3.15e-01  0.700   5.5
    2    -3580.7739215596716349    -2.14e-01  4.22e-03  7.39e-02  1.14e-01  0.700   2.9
                               ***Turning on AO-DIIS***
    3    -3580.8622015089772503    -8.83e-02  1.93e-03  1.89e-02  2.88e-02  0.700   2.8
    4    -3580.9153018739548315    -5.31e-02  3.54e-03  2.51e-02  1.73e-02  0.000   2.6
    5    -3581.0303953887937496    -1.15e-01  4.97e-04  1.28e-02  5.07e-03  0.000   2.8
                              *** Initializing SOSCF ***
---------------------------------------S-O-S-C-F--------------------------------------
Iteration    Energy (Eh)           Delta-E    RMSDP     MaxDP     MaxGrad    Time(sec)
--------------------------------------------------------------------------------------
    6    -3581.0311272972144252    -7.32e-04  1.78e-04  3.61e-03  1.55e-03     2.6
               *** Restarting incremental Fock matrix formation ***
    7    -3581.0312768426761068    -1.50e-04  1.24e-04  2.01e-03  2.82e-04     5.4
    8    -3581.0312810924101541    -4.25e-06  5.26e-05  6.56e-04  2.50e-04     3.6
    9    -3581.0312847856198459    -3.69e-06  4.04e-05  1.05e-03  1.51e-04     3.2
   10    -3581.0312850913974216    -3.06e-07  1.98e-05  3.94e-04  8.55e-05     3.2
   11    -3581.0312859118926099    -8.20e-07  1.10e-05  2.13e-04  4.75e-05     2.8
   12    -3581.0312858713300557     4.06e-08  5.39e-06  1.04e-04  6.91e-05     2.6
   13    -3581.0312859461150765    -7.48e-08  3.02e-06  5.18e-05  1.38e-05     2.3
   14    -3581.0312859634454981    -1.73e-08  1.34e-06  2.43e-05  1.19e-05     2.2
   15    -3581.0312859540222235     9.42e-09  1.41e-06  3.13e-05  4.50e-06     1.9
                 **** Energy Check signals convergence ****

               *****************************************************
               *                     SUCCESS                       *
               *           SCF CONVERGED AFTER  15 CYCLES          *
               *****************************************************

Recomputing exchange energy using gridx3       ... done (    8.088 sec)
Old exchange energy                            :    -43.511329906 Eh
New exchange energy                            :    -43.511436615 Eh
Exchange energy change after final integration :     -0.000106709 Eh
Total energy after final integration           :  -3581.031392641 Eh
             **** ENERGY FILE WAS UPDATED (orca.en.tmp) ****

----------------
TOTAL SCF ENERGY
----------------

Total Energy       :      -3581.03139264142101 Eh          -97444.81819 eV

Components:
Nuclear Repulsion  :       2178.97940731355857 Eh           59293.04407 eV
Electronic Energy  :      -5760.01069324557284 Eh         -156737.85936 eV
One Electron Energy:      -9292.41059354054050 Eh         -252859.34737 eV
Two Electron Energy:       3532.39990029496721 Eh           96121.48801 eV

Virial components:
Potential Energy   :      -7149.48535887437174 Eh         -194547.38721 eV
Kinetic Energy     :       3568.45396623295073 Eh           97102.56902 eV
Virial Ratio       :          2.00352461500904

DFT components:
N(Alpha)           :       91.999991480153 electrons
N(Beta)            :       91.999991480153 electrons
N(Total)           :      183.999982960306 electrons
E(X)               :     -172.924530693911 Eh       
E(C)               :       -7.985683164539 Eh       
E(XC)              :     -180.910213858450 Eh       

---------------
SCF CONVERGENCE
---------------

  Last Energy change         ...   -9.4233e-09  Tolerance :   1.0000e-08
  Last MAX-Density change    ...    3.1262e-05  Tolerance :   1.0000e-07
  Last RMS-Density change    ...    1.4095e-06  Tolerance :   5.0000e-09
  Last DIIS Error            ...    1.5468e-03  Tolerance :   5.0000e-07
  Last Orbital Gradient      ...    4.4960e-06  Tolerance :   1.0000e-05
  Last Orbital Rotation      ...    6.6306e-06  Tolerance :   1.0000e-05


----------------
ORBITAL ENERGIES
----------------

  NO   OCC          E(Eh)            E(eV) 
   0   2.0000    -482.745228    -13136.1655 
   1   2.0000     -62.428404     -1698.7632 
   2   2.0000     -56.259121     -1530.8885 
   3   2.0000     -56.258552     -1530.8730 
   4   2.0000     -56.258413     -1530.8693 
   5   2.0000     -46.863254     -1275.2140 
   6   2.0000     -19.089727      -519.4579 
   7   2.0000     -10.254237      -279.0320 
   8   2.0000     -10.225796      -278.2580 
   9   2.0000     -10.220114      -278.1034 
  10   2.0000     -10.219643      -278.0906 
  11   2.0000     -10.219091      -278.0756 
  12   2.0000     -10.218651      -278.0636 
  13   2.0000     -10.216474      -278.0044 
  14   2.0000     -10.188904      -277.2542 
  15   2.0000     -10.188672      -277.2479 
  16   2.0000     -10.187268      -277.2097 
  17   2.0000     -10.186893      -277.1994 
  18   2.0000     -10.186151      -277.1793 
  19   2.0000     -10.186071      -277.1771 
  20   2.0000     -10.185229      -277.1542 
  21   2.0000     -10.184778      -277.1419 
  22   2.0000     -10.184742      -277.1409 
  23   2.0000     -10.184247      -277.1275 
  24   2.0000     -10.178971      -276.9839 
  25   2.0000     -10.178401      -276.9684 
  26   2.0000      -8.645840      -235.2653 
  27   2.0000      -6.473751      -176.1597 
  28   2.0000      -6.469330      -176.0394 
  29   2.0000      -6.469177      -176.0353 
  30   2.0000      -3.146994       -85.6341 
  31   2.0000      -2.589179       -70.4552 
  32   2.0000      -2.587657       -70.4137 
  33   2.0000      -2.587563       -70.4112 
  34   2.0000      -2.584117       -70.3174 
  35   2.0000      -2.584069       -70.3161 
  36   2.0000      -1.894891       -51.5626 
  37   2.0000      -1.894792       -51.5599 
  38   2.0000      -1.890264       -51.4367 
  39   2.0000      -0.964082       -26.2340 
  40   2.0000      -0.875580       -23.8257 
  41   2.0000      -0.844755       -22.9870 
  42   2.0000      -0.839477       -22.8433 
  43   2.0000      -0.780505       -21.2386 
  44   2.0000      -0.766524       -20.8582 
  45   2.0000      -0.749598       -20.3976 
  46   2.0000      -0.732039       -19.9198 
  47   2.0000      -0.730630       -19.8815 
  48   2.0000      -0.729912       -19.8619 
  49   2.0000      -0.722134       -19.6503 
  50   2.0000      -0.659392       -17.9430 
  51   2.0000      -0.628343       -17.0981 
  52   2.0000      -0.614406       -16.7188 
  53   2.0000      -0.597544       -16.2600 
  54   2.0000      -0.591422       -16.0934 
  55   2.0000      -0.584593       -15.9076 
  56   2.0000      -0.559120       -15.2144 
  57   2.0000      -0.535992       -14.5851 
  58   2.0000      -0.515409       -14.0250 
  59   2.0000      -0.503884       -13.7114 
  60   2.0000      -0.480565       -13.0768 
  61   2.0000      -0.474792       -12.9198 
  62   2.0000      -0.461615       -12.5612 
  63   2.0000      -0.449818       -12.2402 
  64   2.0000      -0.446864       -12.1598 
  65   2.0000      -0.446323       -12.1451 
  66   2.0000      -0.441016       -12.0007 
  67   2.0000      -0.437180       -11.8963 
  68   2.0000      -0.417086       -11.3495 
  69   2.0000      -0.416003       -11.3200 
  70   2.0000      -0.414117       -11.2687 
  71   2.0000      -0.410652       -11.1744 
  72   2.0000      -0.403133       -10.9698 
  73   2.0000      -0.378716       -10.3054 
  74   2.0000      -0.371596       -10.1116 
  75   2.0000      -0.367836       -10.0093 
  76   2.0000      -0.357570        -9.7300 
  77   2.0000      -0.350982        -9.5507 
  78   2.0000      -0.341486        -9.2923 
  79   2.0000      -0.338986        -9.2243 
  80   2.0000      -0.336023        -9.1437 
  81   2.0000      -0.316970        -8.6252 
  82   2.0000      -0.302293        -8.2258 
  83   2.0000      -0.292215        -7.9516 
  84   2.0000      -0.270123        -7.3504 
  85   2.0000      -0.270074        -7.3491 
  86   2.0000      -0.261452        -7.1145 
  87   2.0000      -0.258408        -7.0316 
  88   2.0000      -0.254726        -6.9315 
  89   2.0000      -0.252426        -6.8689 
  90   2.0000      -0.246142        -6.6979 
  91   2.0000      -0.234042        -6.3686 
  92   0.0000      -0.046884        -1.2758 
  93   0.0000      -0.044535        -1.2119 
  94   0.0000      -0.029171        -0.7938 
  95   0.0000      -0.019821        -0.5393 
  96   0.0000      -0.010984        -0.2989 
  97   0.0000       0.005820         0.1584 
  98   0.0000       0.010027         0.2729 
  99   0.0000       0.024070         0.6550 
 100   0.0000       0.037204         1.0124 
 101   0.0000       0.045832         1.2471 
 102   0.0000       0.061874         1.6837 
*Only the first 10 virtual orbitals were printed.

                    ********************************
                    * MULLIKEN POPULATION ANALYSIS *
                    ********************************

-----------------------
MULLIKEN ATOMIC CHARGES
-----------------------
   0 C :    0.410660
   1 O :   -0.588645
   2 Mg:    0.591643
   3 Br:   -0.293437
   4 C :    0.019552
   5 C :   -0.024252
   6 C :   -0.002644
   7 C :    0.018956
   8 H :   -0.027255
   9 C :    0.030726
  10 H :   -0.009018
  11 C :    0.023785
  12 H :   -0.023809
  13 H :   -0.021360
  14 H :   -0.019985
  15 C :    0.017147
  16 C :   -0.019327
  17 C :   -0.003374
  18 C :    0.017951
  19 H :   -0.034542
  20 C :    0.032145
  21 H :   -0.006731
  22 C :    0.024042
  23 H :   -0.023106
  24 H :   -0.021799
  25 H :   -0.019685
  26 C :   -0.281455
  27 C :    0.018931
  28 C :    0.007086
  29 C :    0.049855
  30 H :    0.029472
  31 C :    0.050424
  32 H :    0.029733
  33 C :    0.046477
  34 H :    0.000646
  35 H :    0.000794
  36 H :    0.000400
Sum of atomic charges:    0.0000000

--------------------------------
MULLIKEN REDUCED ORBITAL CHARGES
--------------------------------
  0 C s       :     2.890264  s :     2.890264
      pz      :     0.861704  p :     2.620110
      px      :     0.929290
      py      :     0.829116
      dz2     :     0.012706  d :     0.078967
      dxz     :     0.010649
      dyz     :     0.019565
      dx2y2   :     0.019250
      dxy     :     0.016797

  1 O s       :     3.831774  s :     3.831774
      pz      :     1.716065  p :     4.747904
      px      :     1.621887
      py      :     1.409952
      dz2     :     0.001691  d :     0.008967
      dxz     :     0.000685
      dyz     :     0.001538
      dx2y2   :     0.002190
      dxy     :     0.002863

  2 Mgs       :     4.483384  s :     4.483384
      pz      :     2.233675  p :     6.589158
      px      :     2.188498
      py      :     2.166985
      dz2     :     0.096785  d :     0.335815
      dxz     :     0.088320
      dyz     :     0.084186
      dx2y2   :     0.036750
      dxy     :     0.029773

  3 Brs       :     7.903535  s :     7.903535
      pz      :     5.700268  p :    17.378745
      px      :     5.837170
      py      :     5.841307
      dz2     :     2.003532  d :    10.011157
      dxz     :     2.003045
      dyz     :     2.003096
      dx2y2   :     2.000638
      dxy     :     2.000845

  4 C s       :     3.094809  s :     3.094809
      pz      :     0.983382  p :     2.845615
      px      :     0.955332
      py      :     0.906901
      dz2     :     0.007861  d :     0.040024
      dxz     :     0.005201
      dyz     :     0.010386
      dx2y2   :     0.007902
      dxy     :     0.008675

  5 C s       :     3.231756  s :     3.231756
      pz      :     0.868719  p :     2.757997
      px      :     0.941687
      py      :     0.947591
      dz2     :     0.006254  d :     0.034499
      dxz     :     0.004753
      dyz     :     0.009961
      dx2y2   :     0.006310
      dxy     :     0.007221

  6 C s       :     3.249927  s :     3.249927
      pz      :     0.924790  p :     2.718485
      px      :     0.973411
      py      :     0.820285
      dz2     :     0.008233  d :     0.034232
      dxz     :     0.005878
      dyz     :     0.008245
      dx2y2   :     0.006762
      dxy     :     0.005114

  7 C s       :     3.164232  s :     3.164232
      pz      :     0.966901  p :     2.781767
      px      :     0.977759
      py      :     0.837107
      dz2     :     0.008925  d :     0.035045
      dxz     :     0.005949
      dyz     :     0.007892
      dx2y2   :     0.007194
      dxy     :     0.005086

  8 H s       :     1.004194  s :     1.004194
      pz      :     0.008638  p :     0.023061
      px      :     0.007960
      py      :     0.006463

  9 C s       :     3.164432  s :     3.164432
      pz      :     0.916152  p :     2.769847
      px      :     0.938188
      py      :     0.915507
      dz2     :     0.006345  d :     0.034995
      dxz     :     0.004841
      dyz     :     0.010032
      dx2y2   :     0.006363
      dxy     :     0.007415

 10 H s       :     0.985140  s :     0.985140
      pz      :     0.004510  p :     0.023878
      px      :     0.004270
      py      :     0.015097

 11 C s       :     3.159084  s :     3.159084
      pz      :     0.890520  p :     2.782348
      px      :     0.959525
      py      :     0.932303
      dz2     :     0.006061  d :     0.034782
      dxz     :     0.004326
      dyz     :     0.009929
      dx2y2   :     0.006971
      dxy     :     0.007496

 12 H s       :     1.001100  s :     1.001100
      pz      :     0.003874  p :     0.022709
      px      :     0.004495
      py      :     0.014339

 13 H s       :     0.998733  s :     0.998733
      pz      :     0.008644  p :     0.022627
      px      :     0.007745
      py      :     0.006238

 14 H s       :     0.997296  s :     0.997296
      pz      :     0.010481  p :     0.022689
      px      :     0.006187
      py      :     0.006021

 15 C s       :     3.093820  s :     3.093820
      pz      :     0.988590  p :     2.849032
      px      :     0.935310
      py      :     0.925131
      dz2     :     0.003785  d :     0.040002
      dxz     :     0.005777
      dyz     :     0.006806
      dx2y2   :     0.012047
      dxy     :     0.011587

 16 C s       :     3.232944  s :     3.232944
      pz      :     0.965595  p :     2.751893
      px      :     0.938329
      py      :     0.847970
      dz2     :     0.002996  d :     0.034490
      dxz     :     0.006153
      dyz     :     0.004018
      dx2y2   :     0.011084
      dxy     :     0.010239

 17 C s       :     3.246754  s :     3.246754
      pz      :     0.954072  p :     2.722368
      px      :     0.815515
      py      :     0.952781
      dz2     :     0.003794  d :     0.034252
      dxz     :     0.004697
      dyz     :     0.004742
      dx2y2   :     0.009629
      dxy     :     0.011389

 18 C s       :     3.164796  s :     3.164796
      pz      :     0.986376  p :     2.782192
      px      :     0.908911
      py      :     0.886904
      dz2     :     0.003964  d :     0.035062
      dxz     :     0.004848
      dyz     :     0.004699
      dx2y2   :     0.009493
      dxy     :     0.012058

 19 H s       :     1.011510  s :     1.011510
      pz      :     0.005729  p :     0.023032
      px      :     0.004146
      py      :     0.013157

 20 C s       :     3.164627  s :     3.164627
      pz      :     0.973369  p :     2.768234
      px      :     0.950221
      py      :     0.844644
      dz2     :     0.002989  d :     0.034995
      dxz     :     0.006174
      dyz     :     0.003974
      dx2y2   :     0.011437
      dxy     :     0.010420

 21 H s       :     0.982682  s :     0.982682
      pz      :     0.004510  p :     0.024049
      px      :     0.010610
      py      :     0.008929

 22 C s       :     3.159160  s :     3.159160
      pz      :     0.972333  p :     2.782011
      px      :     0.852452
      py      :     0.957225
      dz2     :     0.002908  d :     0.034787
      dxz     :     0.003802
      dyz     :     0.006286
      dx2y2   :     0.011605
      dxy     :     0.010186

 23 H s       :     1.000403  s :     1.000403
      pz      :     0.004507  p :     0.022703
      px      :     0.008813
      py      :     0.009383

 24 H s       :     0.999163  s :     0.999163
      pz      :     0.005543  p :     0.022636
      px      :     0.004016
      py      :     0.013077

 25 H s       :     0.996992  s :     0.996992
      pz      :     0.005725  p :     0.022693
      px      :     0.013160
      py      :     0.003808

 26 C s       :     3.236989  s :     3.236989
      pz      :     1.009620  p :     3.003176
      px      :     0.963595
      py      :     1.029960
      dz2     :     0.008931  d :     0.041290
      dxz     :     0.010754
      dyz     :     0.007981
      dx2y2   :     0.007080
      dxy     :     0.006545

 27 C s       :     3.231633  s :     3.231633
      pz      :     0.915925  p :     2.715301
      px      :     0.882697
      py      :     0.916679
      dz2     :     0.009850  d :     0.034135
      dxz     :     0.009940
      dyz     :     0.006552
      dx2y2   :     0.003041
      dxy     :     0.004752

 28 C s       :     3.238254  s :     3.238254
      pz      :     0.854386  p :     2.720493
      px      :     0.932013
      py      :     0.934094
      dz2     :     0.008354  d :     0.034167
      dxz     :     0.010713
      dyz     :     0.005808
      dx2y2   :     0.005080
      dxy     :     0.004212

 29 C s       :     3.163839  s :     3.163839
      pz      :     0.912788  p :     2.751314
      px      :     0.897659
      py      :     0.940868
      dz2     :     0.008287  d :     0.034992
      dxz     :     0.010811
      dyz     :     0.006011
      dx2y2   :     0.005249
      dxy     :     0.004633

 30 H s       :     0.947092  s :     0.947092
      pz      :     0.004402  p :     0.023436
      px      :     0.011957
      py      :     0.007076

 31 C s       :     3.163806  s :     3.163806
      pz      :     0.953661  p :     2.750750
      px      :     0.882703
      py      :     0.914386
      dz2     :     0.010102  d :     0.035020
      dxz     :     0.009786
      dyz     :     0.006821
      dx2y2   :     0.003639
      dxy     :     0.004672

 32 H s       :     0.947008  s :     0.947008
      pz      :     0.009532  p :     0.023258
      px      :     0.009205
      py      :     0.004521

 33 C s       :     3.160523  s :     3.160523
      pz      :     0.851534  p :     2.758377
      px      :     0.955607
      py      :     0.951236
      dz2     :     0.008737  d :     0.034623
      dxz     :     0.009175
      dyz     :     0.005030
      dx2y2   :     0.005852
      dxy     :     0.005830

 34 H s       :     0.976630  s :     0.976630
      pz      :     0.008916  p :     0.022723
      px      :     0.009313
      py      :     0.004494

 35 H s       :     0.976485  s :     0.976485
      pz      :     0.004028  p :     0.022721
      px      :     0.011614
      py      :     0.007079

 36 H s       :     0.976850  s :     0.976850
      pz      :     0.013713  p :     0.022750
      px      :     0.003656
      py      :     0.005381



                     *******************************
                     * LOEWDIN POPULATION ANALYSIS *
                     *******************************

----------------------
LOEWDIN ATOMIC CHARGES
----------------------
   0 C :    0.100500
   1 O :   -0.274379
   2 Mg:   -0.136736
   3 Br:    0.091851
   4 C :   -0.017514
   5 C :   -0.031164
   6 C :   -0.010040
   7 C :   -0.027421
   8 H :    0.020256
   9 C :   -0.024208
  10 H :    0.032389
  11 C :   -0.030181
  12 H :    0.025198
  13 H :    0.025863
  14 H :    0.025148
  15 C :   -0.017816
  16 C :   -0.027921
  17 C :   -0.012967
  18 C :   -0.027011
  19 H :    0.020625
  20 C :   -0.024550
  21 H :    0.033315
  22 C :   -0.030054
  23 H :    0.025422
  24 H :    0.025805
  25 H :    0.025233
  26 C :   -0.008067
  27 C :    0.012039
  28 C :    0.012950
  29 C :    0.008814
  30 H :    0.049087
  31 C :    0.008885
  32 H :    0.050561
  33 C :   -0.003987
  34 H :    0.037206
  35 H :    0.037215
  36 H :    0.035656

-------------------------------
LOEWDIN REDUCED ORBITAL CHARGES
-------------------------------
  0 C s       :     2.822091  s :     2.822091
      pz      :     0.991279  p :     2.896053
      px      :     0.998353
      py      :     0.906420
      dz2     :     0.030140  d :     0.181356
      dxz     :     0.023516
      dyz     :     0.047263
      dx2y2   :     0.043409
      dxy     :     0.037028

  1 O s       :     3.483991  s :     3.483991
      pz      :     1.715731  p :     4.774348
      px      :     1.613680
      py      :     1.444937
      dz2     :     0.003074  d :     0.016040
      dxz     :     0.000993
      dyz     :     0.002425
      dx2y2   :     0.003939
      dxy     :     0.005609

  2 Mgs       :     4.453862  s :     4.453862
      pz      :     2.417181  p :     6.909845
      px      :     2.255003
      py      :     2.237661
      dz2     :     0.246932  d :     0.773029
      dxz     :     0.181516
      dyz     :     0.167046
      dx2y2   :     0.088840
      dxy     :     0.088695

  3 Brs       :     7.691065  s :     7.691065
      pz      :     5.676529  p :    17.207283
      px      :     5.764797
      py      :     5.765958
      dz2     :     2.003376  d :    10.009801
      dxz     :     2.002754
      dyz     :     2.002726
      dx2y2   :     2.000323
      dxy     :     2.000622

  4 C s       :     2.864611  s :     2.864611
      pz      :     1.010096  p :     3.049443
      px      :     0.980958
      py      :     1.058390
      dz2     :     0.019053  d :     0.103460
      dxz     :     0.013657
      dyz     :     0.028403
      dx2y2   :     0.020820
      dxy     :     0.021526

  5 C s       :     2.860557  s :     2.860557
      pz      :     1.027220  p :     3.079924
      px      :     1.002063
      py      :     1.050640
      dz2     :     0.015711  d :     0.090684
      dxz     :     0.011867
      dyz     :     0.027801
      dx2y2   :     0.017313
      dxy     :     0.017992

  6 C s       :     2.860728  s :     2.860728
      pz      :     1.021319  p :     3.059715
      px      :     0.991412
      py      :     1.046985
      dz2     :     0.020895  d :     0.089596
      dxz     :     0.016406
      dyz     :     0.022489
      dx2y2   :     0.017043
      dxy     :     0.012763

  7 C s       :     2.862070  s :     2.862070
      pz      :     1.036385  p :     3.074676
      px      :     1.005267
      py      :     1.033023
      dz2     :     0.022138  d :     0.090675
      dxz     :     0.016189
      dyz     :     0.021778
      dx2y2   :     0.017796
      dxy     :     0.012775

  8 H s       :     0.911548  s :     0.911548
      pz      :     0.025397  p :     0.068197
      px      :     0.023366
      py      :     0.019434

  9 C s       :     2.862766  s :     2.862766
      pz      :     1.022937  p :     3.070814
      px      :     0.991555
      py      :     1.056321
      dz2     :     0.015905  d :     0.090629
      dxz     :     0.011879
      dyz     :     0.027240
      dx2y2   :     0.017518
      dxy     :     0.018087

 10 H s       :     0.896244  s :     0.896244
      pz      :     0.013614  p :     0.071367
      px      :     0.013535
      py      :     0.044218

 11 C s       :     2.863205  s :     2.863205
      pz      :     1.018763  p :     3.076931
      px      :     1.000286
      py      :     1.057883
      dz2     :     0.015172  d :     0.090045
      dxz     :     0.010979
      dyz     :     0.026260
      dx2y2   :     0.018676
      dxy     :     0.018958

 12 H s       :     0.908399  s :     0.908399
      pz      :     0.012176  p :     0.066404
      px      :     0.013793
      py      :     0.040435

 13 H s       :     0.907813  s :     0.907813
      pz      :     0.025020  p :     0.066324
      px      :     0.022578
      py      :     0.018727

 14 H s       :     0.908273  s :     0.908273
      pz      :     0.029928  p :     0.066579
      px      :     0.018377
      py      :     0.018273

 15 C s       :     2.864827  s :     2.864827
      pz      :     0.965628  p :     3.049599
      px      :     1.012479
      py      :     1.071492
      dz2     :     0.008454  d :     0.103391
      dxz     :     0.012976
      dyz     :     0.015481
      dx2y2   :     0.034009
      dxy     :     0.032471

 16 C s       :     2.860328  s :     2.860328
      pz      :     0.988813  p :     3.076934
      px      :     1.055625
      py      :     1.032495
      dz2     :     0.006812  d :     0.090660
      dxz     :     0.014441
      dyz     :     0.008881
      dx2y2   :     0.031471
      dxy     :     0.029055

 17 C s       :     2.860893  s :     2.860893
      pz      :     0.970968  p :     3.062421
      px      :     1.042711
      py      :     1.048741
      dz2     :     0.008433  d :     0.089653
      dxz     :     0.011142
      dyz     :     0.011273
      dx2y2   :     0.027077
      dxy     :     0.031728

 18 C s       :     2.862119  s :     2.862119
      pz      :     0.983557  p :     3.074188
      px      :     1.045119
      py      :     1.045512
      dz2     :     0.008808  d :     0.090703
      dxz     :     0.011439
      dyz     :     0.010990
      dx2y2   :     0.026930
      dxy     :     0.032536

 19 H s       :     0.911287  s :     0.911287
      pz      :     0.016933  p :     0.068088
      px      :     0.013248
      py      :     0.037907

 20 C s       :     2.862807  s :     2.862807
      pz      :     0.976888  p :     3.071103
      px      :     1.059800
      py      :     1.034414
      dz2     :     0.006844  d :     0.090639
      dxz     :     0.014419
      dyz     :     0.008606
      dx2y2   :     0.031349
      dxy     :     0.029421

 21 H s       :     0.894854  s :     0.894854
      pz      :     0.013652  p :     0.071831
      px      :     0.031491
      py      :     0.026688

 22 C s       :     2.863246  s :     2.863246
      pz      :     0.982229  p :     3.076747
      px      :     1.033615
      py      :     1.060904
      dz2     :     0.006721  d :     0.090061
      dxz     :     0.008180
      dyz     :     0.014712
      dx2y2   :     0.031774
      dxy     :     0.028674

 23 H s       :     0.908198  s :     0.908198
      pz      :     0.013699  p :     0.066380
      px      :     0.025442
      py      :     0.027239

 24 H s       :     0.907839  s :     0.907839
      pz      :     0.016537  p :     0.066355
      px      :     0.012713
      py      :     0.037105

 25 H s       :     0.908173  s :     0.908173
      pz      :     0.016962  p :     0.066593
      px      :     0.037300
      py      :     0.012331

 26 C s       :     2.859512  s :     2.859512
      pz      :     1.029340  p :     3.044861
      px      :     1.040485
      py      :     0.975037
      dz2     :     0.023094  d :     0.103694
      dxz     :     0.028819
      dyz     :     0.018807
      dx2y2   :     0.016499
      dxy     :     0.016475

 27 C s       :     2.850992  s :     2.850992
      pz      :     1.049711  p :     3.046875
      px      :     1.022404
      py      :     0.974760
      dz2     :     0.027868  d :     0.090095
      dxz     :     0.027512
      dyz     :     0.016390
      dx2y2   :     0.007146
      dxy     :     0.011180

 28 C s       :     2.850090  s :     2.850090
      pz      :     1.048503  p :     3.046862
      px      :     1.032070
      py      :     0.966288
      dz2     :     0.022911  d :     0.090098
      dxz     :     0.028835
      dyz     :     0.014882
      dx2y2   :     0.011972
      dxy     :     0.011498

 29 C s       :     2.860776  s :     2.860776
      pz      :     1.046391  p :     3.040122
      px      :     1.028597
      py      :     0.965135
      dz2     :     0.022856  d :     0.090287
      dxz     :     0.028604
      dyz     :     0.015204
      dx2y2   :     0.011772
      dxy     :     0.011850

 30 H s       :     0.880018  s :     0.880018
      pz      :     0.014016  p :     0.070894
      px      :     0.034962
      py      :     0.021916

 31 C s       :     2.860529  s :     2.860529
      pz      :     1.057255  p :     3.040219
      px      :     1.024843
      py      :     0.958121
      dz2     :     0.027870  d :     0.090367
      dxz     :     0.027168
      dyz     :     0.016663
      dx2y2   :     0.007844
      dxy     :     0.010821

 32 H s       :     0.878966  s :     0.878966
      pz      :     0.028680  p :     0.070473
      px      :     0.027949
      py      :     0.013844

 33 C s       :     2.861969  s :     2.861969
      pz      :     1.037040  p :     3.052581
      px      :     1.040794
      py      :     0.974748
      dz2     :     0.022998  d :     0.089438
      dxz     :     0.025543
      dyz     :     0.011696
      dx2y2   :     0.014075
      dxy     :     0.015126

 34 H s       :     0.895816  s :     0.895816
      pz      :     0.026123  p :     0.066978
      px      :     0.027225
      py      :     0.013630

 35 H s       :     0.895809  s :     0.895809
      pz      :     0.012826  p :     0.066976
      px      :     0.033528
      py      :     0.020622

 36 H s       :     0.897150  s :     0.897150
      pz      :     0.039138  p :     0.067194
      px      :     0.011827
      py      :     0.016229



                      *****************************
                      * MAYER POPULATION ANALYSIS *
                      *****************************

  NA   - Mulliken gross atomic population
  ZA   - Total nuclear charge
  QA   - Mulliken gross atomic charge
  VA   - Mayer's total valence
  BVA  - Mayer's bonded valence
  FA   - Mayer's free valence

  ATOM       NA         ZA         QA         VA         BVA        FA
  0 C      5.5893     6.0000     0.4107     3.5752     3.5752     0.0000
  1 O      8.5886     8.0000    -0.5886     1.9871     1.9871    -0.0000
  2 Mg    11.4084    12.0000     0.5916     2.4350     2.4350     0.0000
  3 Br    35.2934    35.0000    -0.2934     1.1978     1.1978     0.0000
  4 C      5.9804     6.0000     0.0196     3.8146     3.8146     0.0000
  5 C      6.0243     6.0000    -0.0243     3.8331     3.8331    -0.0000
  6 C      6.0026     6.0000    -0.0026     3.8637     3.8637     0.0000
  7 C      5.9810     6.0000     0.0190     3.8467     3.8467    -0.0000
  8 H      1.0273     1.0000    -0.0273     0.9870     0.9870    -0.0000
  9 C      5.9693     6.0000     0.0307     3.7880     3.7880    -0.0000
 10 H      1.0090     1.0000    -0.0090     1.0062     1.0062    -0.0000
 11 C      5.9762     6.0000     0.0238     3.8171     3.8171    -0.0000
 12 H      1.0238     1.0000    -0.0238     0.9766     0.9766    -0.0000
 13 H      1.0214     1.0000    -0.0214     0.9775     0.9775    -0.0000
 14 H      1.0200     1.0000    -0.0200     0.9771     0.9771    -0.0000
 15 C      5.9829     6.0000     0.0171     3.8183     3.8183     0.0000
 16 C      6.0193     6.0000    -0.0193     3.8274     3.8274     0.0000
 17 C      6.0034     6.0000    -0.0034     3.8673     3.8673    -0.0000
 18 C      5.9820     6.0000     0.0180     3.8471     3.8471     0.0000
 19 H      1.0345     1.0000    -0.0345     0.9909     0.9909     0.0000
 20 C      5.9679     6.0000     0.0321     3.7872     3.7872    -0.0000
 21 H      1.0067     1.0000    -0.0067     1.0043     1.0043    -0.0000
 22 C      5.9760     6.0000     0.0240     3.8156     3.8156     0.0000
 23 H      1.0231     1.0000    -0.0231     0.9766     0.9766    -0.0000
 24 H      1.0218     1.0000    -0.0218     0.9775     0.9775     0.0000
 25 H      1.0197     1.0000    -0.0197     0.9771     0.9771     0.0000
 26 C      6.2815     6.0000    -0.2815     3.8247     3.8247     0.0000
 27 C      5.9811     6.0000     0.0189     3.7778     3.7778    -0.0000
 28 C      5.9929     6.0000     0.0071     3.7781     3.7781     0.0000
 29 C      5.9501     6.0000     0.0499     3.8089     3.8089    -0.0000
 30 H      0.9705     1.0000     0.0295     0.9949     0.9949    -0.0000
 31 C      5.9496     6.0000     0.0504     3.8065     3.8065    -0.0000
 32 H      0.9703     1.0000     0.0297     0.9950     0.9950     0.0000
 33 C      5.9535     6.0000     0.0465     3.8066     3.8066     0.0000
 34 H      0.9994     1.0000     0.0006     0.9801     0.9801    -0.0000
 35 H      0.9992     1.0000     0.0008     0.9799     0.9799    -0.0000
 36 H      0.9996     1.0000     0.0004     0.9802     0.9802     0.0000

  Mayer bond orders larger than 0.100000
B(  0-C ,  1-O ) :   1.0597 B(  0-C ,  4-C ) :   0.9045 B(  0-C , 15-C ) :   0.8958 
B(  0-C , 26-C ) :   0.8687 B(  1-O ,  2-Mg) :   0.8173 B(  2-Mg,  3-Br) :   1.1829 
B(  2-Mg, 26-C ) :   0.1486 B(  4-C ,  5-C ) :   1.3706 B(  4-C ,  6-C ) :   1.4305 
B(  5-C ,  7-C ) :   1.3828 B(  5-C ,  8-H ) :   0.9822 B(  6-C ,  9-C ) :   1.3441 
B(  6-C , 10-H ) :   0.9793 B(  7-C , 11-C ) :   1.3790 B(  7-C , 12-H ) :   0.9808 
B(  9-C , 11-C ) :   1.3787 B(  9-C , 13-H ) :   0.9838 B( 11-C , 14-H ) :   0.9847 
B( 15-C , 16-C ) :   1.3627 B( 15-C , 17-C ) :   1.4410 B( 16-C , 18-C ) :   1.3886 
B( 16-C , 19-H ) :   0.9842 B( 17-C , 20-C ) :   1.3377 B( 17-C , 21-H ) :   0.9763 
B( 18-C , 22-C ) :   1.3725 B( 18-C , 23-H ) :   0.9814 B( 20-C , 22-C ) :   1.3841 
B( 20-C , 24-H ) :   0.9838 B( 22-C , 25-H ) :   0.9848 B( 26-C , 27-C ) :   1.3408 
B( 26-C , 28-C ) :   1.3277 B( 27-C , 29-C ) :   1.3411 B( 27-C , 30-H ) :   0.9723 
B( 28-C , 31-C ) :   1.3466 B( 28-C , 32-H ) :   0.9744 B( 29-C , 33-C ) :   1.3737 
B( 29-C , 34-H ) :   0.9835 B( 31-C , 33-C ) :   1.3647 B( 31-C , 35-H ) :   0.9841 
B( 33-C , 36-H ) :   0.9865 

-------
TIMINGS
-------

Total SCF time: 0 days 0 hours 0 min 56 sec 

Total time                  ....      56.710 sec
Sum of individual times     ....      54.768 sec  ( 96.6%)

SCF preparation             ....       0.277 sec  (  0.5%)
Fock matrix formation       ....      53.238 sec  ( 93.9%)
  Startup                   ....       0.016 sec  (  0.0% of F)
  Split-RI-J                ....       5.938 sec  ( 11.2% of F)
  Chain of spheres X        ....      43.319 sec  ( 81.4% of F)
  XC integration            ....       5.461 sec  ( 10.3% of F)
    XC Preparation          ....       0.000 sec  (  0.0% of XC)
    Basis function eval.    ....       1.825 sec  ( 33.4% of XC)
    Density eval.           ....       1.452 sec  ( 26.6% of XC)
    XC-Functional eval.     ....       0.188 sec  (  3.4% of XC)
    XC-Potential eval.      ....       1.303 sec  ( 23.9% of XC)
Diagonalization             ....       0.000 sec  (  0.0%)
Density matrix formation    ....       0.140 sec  (  0.2%)
Total Energy calculation    ....       0.056 sec  (  0.1%)
Population analysis         ....       0.049 sec  (  0.1%)
Orbital Transformation      ....       0.094 sec  (  0.2%)
Orbital Orthonormalization  ....       0.000 sec  (  0.0%)
DIIS solution               ....       0.465 sec  (  0.8%)
SOSCF solution              ....       0.451 sec  (  0.8%)
Finished LeanSCF after  56.7 sec

Maximum memory used throughout the entire LEANSCF-calculation: 47.8 MB


-------------------------------------------------------------------------------
                          DFT DISPERSION CORRECTION                            
                                                                               
                              DFTD3 V3.1  Rev 1                                
                          USING Becke-Johnson damping                          
-------------------------------------------------------------------------------
The B3LYP functional is recognized
Active option DFTDOPT                   ...         4   

molecular C6(AA) [au] = 22060.044510 


            DFT-D V3
 parameters
 s6 scaling factor         :     1.0000 
 a1 scaling factor         :     0.3981 
 s8 scaling factor         :     1.9889 
 a2 scaling factor         :     4.4211 
 ad hoc parameters k1-k3   :    16.0000     1.3333    -4.0000 

 Edisp/kcal,au: -61.774975526863  -0.098444679309 
 E6   /kcal   : -27.795044188 
 E8   /kcal   : -33.979931339 
 % E8         :  55.005981061 

-------------------------   ----------------
Dispersion correction           -0.098444679
-------------------------   ----------------


-------------------------   --------------------
FINAL SINGLE POINT ENERGY     -3581.129837320730
-------------------------   --------------------



           ************************************************************
           *        Program running with 6 parallel MPI-processes     *
           *              working on a common directory               *
           ************************************************************
------------------------------------------------------------------------------
                         ORCA SCF GRADIENT CALCULATION
------------------------------------------------------------------------------

Nuc. rep. gradient        (SHARK) ... done (  0.0 sec)
HCore & Overlap gradient  (SHARK) ... done (  0.3 sec)
Split-RIJ-J gradient      (SHARK) ... done (  1.5 sec)
done ( 18.2 sec)
XC gradient                       ... done (  3.4 sec)
Dispersion correction             ... done (  0.0 sec)

-------------------
DISPERSION GRADIENT
-------------------

   1   C   :    0.000124949    0.000145258    0.000073050
   2   O   :    0.000272640    0.000581863   -0.000117403
   3   Mg  :    0.000305500   -0.000359875    0.000865077
   4   Br  :    0.000791853    0.001321979    0.000758306
   5   C   :    0.000370454   -0.000212797   -0.000691813
   6   C   :    0.000379808   -0.000812207   -0.000769390
   7   C   :    0.000647742   -0.000004760   -0.000871235
   8   C   :    0.000129111   -0.000442759   -0.000369244
   9   H   :   -0.000039282   -0.000560636   -0.000160705
  10   C   :    0.000283245    0.000024891   -0.000398320
  11   H   :    0.000314250    0.000255070   -0.000306839
  12   C   :    0.000175405   -0.000184055   -0.000326930
  13   H   :   -0.000019831   -0.000306452   -0.000076355
  14   H   :    0.000175119    0.000125978   -0.000212539
  15   H   :    0.000120269   -0.000138481   -0.000222341
  16   C   :   -0.000656779    0.000292690   -0.000356270
  17   C   :   -0.001145474   -0.000047960   -0.000332266
  18   C   :   -0.000741872    0.000694903   -0.000435607
  19   C   :   -0.000554324   -0.000102690   -0.000186046
  20   H   :   -0.000458206   -0.000356442   -0.000066661
  21   C   :   -0.000315352    0.000329903   -0.000199332
  22   H   :   -0.000110578    0.000472514   -0.000158356
  23   C   :   -0.000377117    0.000095671   -0.000156409
  24   H   :   -0.000247643   -0.000195938   -0.000027622
  25   H   :   -0.000097948    0.000269627   -0.000100679
  26   H   :   -0.000266510    0.000058849   -0.000094518
  27   C   :    0.000281273    0.000201002    0.000540313
  28   C   :    0.001120307    0.000145297    0.000735865
  29   C   :   -0.000181120    0.001063519    0.001104000
  30   C   :   -0.000398715   -0.000424376    0.000632320
  31   H   :   -0.000279909   -0.000056089    0.000480852
  32   C   :    0.000226921   -0.000682965    0.000457792
  33   H   :    0.000339817   -0.000306346    0.000293021
  34   C   :   -0.000153859   -0.000431862    0.000054311
  35   H   :   -0.000255812   -0.000033634    0.000247638
  36   H   :    0.000232922   -0.000249683    0.000105947
  37   H   :    0.000008746   -0.000169007    0.000288389

Difference to translation invariance:
           :   -0.0000000000    0.0000000000   -0.0000000000

Difference to rotation invariance:
           :   -0.0000000000   -0.0000000000   -0.0000000000

Norm of the Dispersion gradient    ...    0.0046339128
RMS gradient                       ...    0.0004398315
MAX gradient                       ...    0.0013219794

------------------
CARTESIAN GRADIENT
------------------

   1   C   :   -0.000117034   -0.000064993   -0.000094480
   2   O   :    0.000334954   -0.000406239    0.000044138
   3   Mg  :   -0.000116121   -0.000150316   -0.000552620
   4   Br  :    0.000120184    0.000147744    0.001224364
   5   C   :   -0.000034997   -0.000008853   -0.000001894
   6   C   :   -0.000027563    0.000012544   -0.000013188
   7   C   :   -0.000084058    0.000075937   -0.000053619
   8   C   :   -0.000036819   -0.000021488   -0.000055543
   9   H   :    0.000018732    0.000019669    0.000075093
  10   C   :   -0.000032823    0.000023460    0.000043078
  11   H   :   -0.000088397   -0.000006589   -0.000042768
  12   C   :    0.000062229   -0.000000498    0.000040311
  13   H   :   -0.000020699   -0.000037799    0.000019695
  14   H   :   -0.000028630   -0.000022327   -0.000117957
  15   H   :   -0.000049116   -0.000068900   -0.000019925
  16   C   :   -0.000060251   -0.000102925   -0.000066592
  17   C   :    0.000091102    0.000095893    0.000032660
  18   C   :   -0.000051915   -0.000045768   -0.000147312
  19   C   :    0.000020922   -0.000024336    0.000023647
  20   H   :   -0.000001855   -0.000064233   -0.000025900
  21   C   :   -0.000033078   -0.000025394   -0.000004260
  22   H   :    0.000050494    0.000099550   -0.000086099
  23   C   :   -0.000045148    0.000050768    0.000028077
  24   H   :   -0.000055545   -0.000069828   -0.000004563
  25   H   :   -0.000005600   -0.000004392   -0.000030140
  26   H   :    0.000006634   -0.000031848    0.000017149
  27   C   :    0.000018670    0.000177435   -0.000015425
  28   C   :   -0.000157026    0.000095474   -0.000023805
  29   C   :    0.000207329    0.000085215   -0.000093608
  30   C   :   -0.000182442   -0.000008342    0.000135974
  31   H   :    0.000126021    0.000007764   -0.000085334
  32   C   :    0.000142022    0.000033865   -0.000028255
  33   H   :   -0.000041390    0.000098168   -0.000037754
  34   C   :    0.000019927   -0.000031632    0.000010696
  35   H   :    0.000042321    0.000077118   -0.000029426
  36   H   :   -0.000000129    0.000051666   -0.000002408
  37   H   :    0.000009094    0.000044431   -0.000062008

Difference to translation invariance:
           :    0.0000000001    0.0000000003    0.0000000005

Difference to rotation invariance:
           :   -0.0005092449   -0.0002593617    0.0003973693

Norm of the Cartesian gradient     ...    0.0016178415
RMS gradient                       ...    0.0001535587
MAX gradient                       ...    0.0012243642

-------
TIMINGS
-------

Total SCF gradient time     ....       23.380 sec

Densities                   ....       0.003 sec  (  0.0%)
One electron gradient       ....       0.337 sec  (  1.4%)
RI-J Coulomb gradient       ....       1.459 sec  (  6.2%)
COSX gradient               ....      18.156 sec  ( 77.7%)
XC gradient                 ....       3.403 sec  ( 14.6%)

Maximum memory used throughout the entire SCFGRAD-calculation: 56.4 MB


           ************************************************************
           *        Program running with 6 parallel MPI-processes     *
           *              working on a common directory               *
           ************************************************************

------------------------------------------------------------------------------
                              ORCA PROPERTY CALCULATIONS
------------------------------------------------------------------------------

GBWName                                 ... orca.gbw
Number of atoms                         ...     37
Number of basis functions               ...    405
Max core memory                         ...   4096 MB

Electric properties:
Dipole moment                           ... YES
Quadrupole moment                       ...  NO
Static polarizability (Dipole/Dipole)   ...  NO
Static polarizability (Dipole/Quad.)    ...  NO
Static polarizability (Quad./Quad.)     ...  NO
Static polarizability (Velocity)        ...  NO
Static hyperpolarizability              ...  NO

Atomic electric properties:
Dipole moment                           ...  NO
Quadrupole moment                       ...  NO
Static polarizability                   ...  NO

Choice of electric origin               ... Center of mass
Position of electric origin             ...    -1.666000    -0.613685     0.589505

General magnetic properties:
Magnetizability                         ...  NO

EPR properties:
g-Tensor (aka g-matrix)                 ...  NO
Zero-Field splitting spin-orbit         ...  NO
Zero-field splitting spin-spin          ...  NO
Hyperfine couplings                     ...  NO (   0 nuclei)
Quadrupole couplings                    ...  NO (   0 nuclei)
Contact density                         ...  NO (   0 nuclei)

NMR properties:
Chemical shifts                         ...  NO (   0 nuclei)
Spin-rotation constants                 ...  NO (   0 nuclei)
Spin-spin couplings                     ...  NO (   0 nuclei,    0 pairs)

Choice of magnetic origin               ... GIAO
Position of magnetic origin             ...     0.000000     0.000000     0.000000

Properties with geometric perturbations:
SCF Hessian                             ...  NO
IR spectrum                             ...  NO
VCD spectrum                            ...  NO
X-ray spectroscopy properties:
SCF XES/XAS/RIXS spectra                ...  NO

SCF SOC stabilization energy            ...  NO
Diagonal Born-Oppenheimer correction    ...  NO

-------------
DIPOLE MOMENT
-------------

Method             : SCF
Type of density    : Electron Density
Multiplicity       :   1
Irrep              :   0
Energy             : -3581.0313926414210073 Eh
Basis              : AO
                                X                 Y                 Z
Electronic contribution:     27.644983248      32.707916757      44.537108370
Nuclear contribution   :    -28.106464337     -33.866750305     -44.375921756
                        -----------------------------------------
Total Dipole Moment    :     -0.461481089      -1.158833548       0.161186613
                        -----------------------------------------
Magnitude (a.u.)       :      1.257712651
Magnitude (Debye)      :      3.196851501



--------------------
Rotational spectrum 
--------------------
 
Rotational constants in cm-1:             0.009927             0.004925             0.004385 
Rotational constants in MHz :           297.598656           147.641842           131.469607 

Dipole components along the rotational axes: 
x,y,z [a.u.] :    -0.434457    -0.099464     1.176093 
x,y,z [Debye]:    -1.104301    -0.252818     2.989392 

 

Dipole moment calculation done in   0.0 sec 

Maximum memory used throughout the entire PROP-calculation: 26.4 MB

--------------------------------
SUGGESTED CITATIONS FOR THIS RUN
--------------------------------

Below you find a list of papers that are relevant to this ORCA run
We neither can nor want to force you to cite these papers, but we appreciate if you do
You receive ORCA, which is the product of decades of hard work by many enthusiastic individuals, for free
The only thing we kindly ask in return is that you cite our papers,
We deeply appreciate it, if you show your appreciation for ORCA by not just citing the generic ORCA reference.

Please note that relegating all ORCA citations to the supporting information does *not* help us.
SI sections are not indexed - citations you put there will not count into any citation statistics
But we need these citations in order to attract the funding resources that allow us to do what we are doing

Therefore, if you are a happy ORCA user, please consider citing a few of the papers listed below in the main body of your paper

In addition to the list printed below, the program has created the file orca.bibtex that contains the list in bibtex format
You can import this file easily into all common literature databanks and citation aid programs


List of essential papers. We consider these as the minimum necessary citations

  1. Neese, F.
     Software update: the ORCA program system, version 6.0
     WIRES Comput. Molec. Sci. 2025 15(1), e70019
     doi.org/10.1002/wcms.7019

List of papers to cite with high priority. The work reported in these papers was absolutely
necessary for this run to complete.
Our perspective: the developers of density functionals and basis sets usually get cited in chemistry papers
Good! But without the algorithms to do something with them, the functionals or basis sets would not do anything.
Hence, in our opinion, the algorithm design and method developments papers are equally worthy of getting cited

  1. Neese, F.
     An improvement of the resolution of the identity approximation for the formation of the Coulomb matrix
     J. Comp. Chem. 2003 24(14), 1740-1747
     doi.org/10.1002/jcc.10318
  2. Neese, F.; Wennmohs, F.; Hansen, A.; Becker, U.
     Efficient, approximate and parallel Hartree-Fock and hybrid DFT calculations. A 'chain-of-spheres' algorithm for the Hartree-Fock exchange
     Chem. Phys. 2009 356(1-3), 98-109
     doi.org/10.1016/j.chemphys.2008.10.036
  3. Grimme, S.; Antony, J.; Ehrlich, S.; Krieg, H.
     A consistent and accurate ab initio parametrization of density functional dispersion correction (DFT-D) for the 94 elements H-Pu
     J. Chem. Phys. 2010 132 , 154104
     doi.org/10.1063/1.3382344
  4. Grimme, S.; Ehrlich, S.; Goerigk, L.
     Effect of the damping function in dispersion corrected density functional theory
     J. Comput. Chem. 2011 32(7), 1456-1465
     doi.org/10.1002/jcc.21759
  5. Helmich-Paris, B.; de Souza, B.; Neese, F.; Izsák, R.
     An improved chain of spheres for exchange algorithm
     J. Chem. Phys. 2021 155(10), 104109
     doi.org/10.1063/5.0058766
  6. Neese, F.
     The SHARK Integral Generation and Digestion System
     J. Comp. Chem. 2022 44(3), 381
     doi.org/10.1002/jcc.26942

List of suggested additional citations. These are papers that are important in the 'surrounding' of 
of this run, or papers that preceded the highly important papers. If you like your results we are grateful for a citation.

  1. Izsak, R.; Neese, F.
     An overlap fitted chain of spheres exchange method
     J. Chem. Phys. 2011 135 , 144105
     doi.org/10.1063/1.3646921
  2. Izsak, R.; Hansen, A.; Neese, F.
     The resolution of identity and chain of spheres approximations for the LPNO-CCSD singles Fock term
     Molec. Phys. 2012 110 , 2413-2417
     doi.org/10.1080/00268976.2012.687466
  3. Neese, F.
     The ORCA program system
     WIRES Comput. Molec. Sci. 2012 2(1), 73-78
     doi.org/10.1002/wcms.81
  4. Izsak, R.; Neese, F.; Klopper, W.
     Robust fitting techniques in the chain of spheres approximation to the Fock exchange: The role of the complementary space
     J. Chem. Phys. 2013 139 , 
     doi.org/10.1063/1.4819264
  5. Neese, F.
     Software update: the ORCA program system, version 4.0
     WIRES Comput. Molec. Sci. 2018 8(1), 1-6
     doi.org/10.1002/wcms.1327
  6. Neese, F.; Wennmohs, F.; Becker, U.; Riplinger, C.
     The ORCA quantum chemistry program package
     J. Chem. Phys. 2020 152(22), 224108
     doi.org/10.1063/5.0004608
  7. Neese, F.
     Software update: The ORCA program system—Version 5.0
     WIRES Comput. Molec. Sci. 2022 12(1), e1606
     doi.org/10.1002/wcms.1606

List of optional additional citations

  1. Neese, F.
     Approximate second-order SCF convergence for spin unrestricted wavefunctions
     Chem. Phys. Lett. 2000 325(1-3), 93-98
     doi.org/10.1016/s0009-2614(00)00662-x

Timings for individual modules:

Sum of individual times          ...       85.635 sec (=   1.427 min)
Startup calculation              ...        3.054 sec (=   0.051 min)   3.6 %
SCF iterations                   ...       58.274 sec (=   0.971 min)  68.0 %
Property calculations            ...        0.461 sec (=   0.008 min)   0.5 %
SCF Gradient evaluation          ...       23.846 sec (=   0.397 min)  27.8 %
                             ****ORCA TERMINATED NORMALLY****
TOTAL RUN TIME: 0 days 0 hours 1 minutes 26 seconds 170 msec
