
                                 *****************
                                 * O   R   C   A *
                                 *****************

                                            #,                                       
                                            ###                                      
                                            ####                                     
                                            #####                                    
                                            ######                                   
                                           ########,                                 
                                     ,,################,,,,,                         
                               ,,#################################,,                 
                          ,,##########################################,,             
                       ,#########################################, ''#####,          
                    ,#############################################,,   '####,        
                  ,##################################################,,,,####,       
                ,###########''''           ''''###############################       
              ,#####''   ,,,,##########,,,,          '''####'''          '####       
            ,##' ,,,,###########################,,,                        '##       
           ' ,,###''''                  '''############,,,                           
         ,,##''                                '''############,,,,        ,,,,,,###''
      ,#''                                            '''#######################'''  
     '                                                          ''''####''''         
             ,#######,   #######,   ,#######,      ##                                
            ,#'     '#,  ##    ##  ,#'     '#,    #''#        ,####,    ,#,          
            ##       ##  ##   ,#'  ##            #'  '#       #'       ,# #          
            ##       ##  #######   ##           ,######,      #####,      #          
            '#,     ,#'  ##    ##  '#,     ,#' ,#      #,     #,   #      #          
             '#######'   ##     ##  '#######'  #'      '#     '####' #    #          



                #########################################################
                #                        -***-                          #
                #          Department of theory and spectroscopy        #
                #                                                       #
                #                      Frank Neese                      #
                #                                                       #
                #     Directorship, Architecture, Infrastructure        #
                #                    SHARK, DRIVERS                     #
                #        Core code/Algorithms in most modules           #
                #                                                       #
                #        Max Planck Institute fuer Kohlenforschung      #
                #                Kaiser Wilhelm Platz 1                 #
                #                 D-45470 Muelheim/Ruhr                 #
                #                      Germany                          #
                #                                                       #
                #                  All rights reserved                  #
                #                        -***-                          #
                #########################################################


                         Program Version 6.1.0  -  RELEASE   -
                                (GIT: $679e74b$)
                          ($2025-06-10 18:02:51 +0200$)


 With contributions from (in alphabetic order):
[Max-Planck-Institut fuer Kohlenforschung]                               
  Daniel Aravena         : Magnetic Suceptibility                        
  Michael Atanasov       : Ab Initio Ligand Field Theory (pilot matlab implementation)
  Alexander A. Auer      : GIAO ZORA, VPT2 properties, NMR spectrum      
  Ute Becker             : All parallelization in ORCA, NUMFREQ, NUMCALC 
  Giovanni Bistoni       : ED, misc. LED, open-shell LED, HFLD           
  Dmytro Bykov           : pre 5.0 version of the SCF Hessian            
  Marcos Casanova-Páez   : Triplet and SCS-CIS(D). UHF-(DLPNO)-IP/EA/STEOM-CCSD. UHF-CVS-IP/STEOM-CCSD   
  Vijay G. Chilkuri      : MRCI spin determinant printing, contributions to CSF-ICE 
  Pauline Colinet        : FMM embedding                                 
  Dipayan Datta          : RHF DLPNO-CCSD density                        
  Achintya Kumar Dutta   : EOM-CC, STEOM-CC                              
  Nicolas Foglia         : Exact transition moments, OPA infrastructure, MCD improvements    
  Dmitry Ganyushin       : Spin-Orbit,Spin-Spin,Magnetic field MRCI      
  Miquel Garcia-Rates    : C-PCM and meta-GGA Hessian, CCSD/C-PCM, Gaussian charge scheme 
  Tiago L. C. Gouveia    : GS-ROHF, GS-ROCIS                             
  Yang Guo               : DLPNO-NEVPT2, F12-NEVPT2, CIM, IAO-localization        
  Andreas Hansen         : Spin unrestricted coupled pair/coupled cluster methods 
  Ingolf Harden          : AUTO-CI MPn and infrastructure                
  Benjamin Helmich-Paris : MC-RPA, TRAH-(SCF,CASSCF), AVAS, COSX integrals, SCF dyn. polar., MC-PDFT, srDFT 
  Lee Huntington         : MR-EOM, pCC                                   
  Robert Izsak           : Overlap fitted RIJCOSX, COSX-SCS-MP3, EOM     
  Riya Kayal             : Wick's Theorem for AUTO-CI, AUTO-CI UHF-CCSDT 
  Emily Kempfer          : AUTO-CI RHF CISDT and CCSDT, approximate NEVPT4
  Christian Kollmar      : KDIIS, OOCD, Brueckner-CCSD(T), CCSD density, CASPT2, CASPT2-K, improved NEVPT2 
  Axel Koslowski         : Symmetry handling                             
  Simone Kossmann        : meta-GGA functionals, TD-DFT gradient, OOMP2, (MP2 Hessian; deprecated post 5.0) 
  Lucas Lang             : DCDCAS, Hyperfine gauge corrections, ICE-SOC+SSC
  Marvin Lechner         : AUTO-CI (C++ implementation), FIC-MRCC        
  Spencer Leger          : CASSCF response                               
  Dagmar Lenk            : GEPOL surface, SMD, ORCA-2-JSON               
  Dimitrios Liakos       : Extrapolation schemes; Compound Job, Property file
  Dimitrios Manganas     : Further ROCIS development; embedding schemes. LFT, Crystal Embedding 
  Dimitrios Pantazis     : SARC Basis sets                               
  Anastasios Papadopoulos: AUTO-CI, single reference methods and gradients 
  Taras Petrenko         : pre 6.0 DFT Hessian and TD-DFT gradient,  ECA, NRVS 
  Petra Pikulova         : Analytic Raman intensities                    
  Peter Pinski           : DLPNO-MP2, DLPNO-MP2 Gradient                 
  Shashank Vittal Rao    : ES-AILFT, MagRelax                            
  Christoph Reimann      : Effective Core Potentials                     
  Marius Retegan         : Local ZFS, SOC                                
  Christoph Riplinger    : Optimizer, TS searches, QM/MM, DLPNO-CCSD(T), (RO)-DLPNO pert. Triples 
  Michael Roemelt        : Original ROCIS implementation, recursive CI coupling coefficients
  Masaaki Saitow         : Open-shell DLPNO-CCSD energy and density      
  Barbara Sandhoefer     : DKH picture change effects                    
  Yorick L. A. Schmerwitz: GMF and freeze-and-release deltaSCF, NEB S-IDPP initial path                    
  Kantharuban Sivalingam : CASSCF convergence/infrastructure, NEVPT2, NEVPT3, NEVPT4(SD), FIC-MRCI and CEPA variants
  Bernardo de Souza      : ESD, SOC TD-DFT                               
  Georgi L. Stoychev     : AutoAux, RI-MP2 NMR, DLPNO-MP2 response, X2C  
  Van Anh Tran           : RI-MP2 g-tensors                              
  Willem Van den Heuvel  : Paramagnetic NMR                              
  Zikuan Wang            : NOTCH, Electric field optimization            
  Frank Wennmohs         : Technical directorship and infrastructure     
  Hang Xu                : AUTO-CI-Response properties                   
                                                                         
[FACCTs GmbH]                                                            
  Markus Bursch, Nicolas Foglia, Miquel Garcia-Rates, Ingolf Harden, Hagen Neugebauer, Anastasios Papadopoulos, 
  Christoph Riplinger, Bernardo de Souza, Georgi L. Stoychev                                                    
                                                                 
  APM, various basis sets, CI-OPT, improved COSX, DLPNO-Multilevel,           
  DOCKER, DRACO, updates on ESD, Fragmentator, GOAT, IRC, LR-CPCM, L-BFGS, MBIS, meta-GGA TD-DFT gradient, ML-optimized integration grids, 
  MM, NACMEs, nearIR, NEB, NEB-TS, NL-DFT gradient (VV10), 2- and 3-layer-ONIOM, interface openCOSMO-RS, QMMM,   
  Crystal-QMMM, RESP, rigid body optimization, SF, symmetry and pop. for TD-DFT, various functionals, SOLVATOR                                   
                                                                         
[Other institutions]                                                     
  V. Asgeirsson          : NEB                                           
  Christoph Bannwarth    : sTDA-DFT, sTD-DFT, PBEh-3c, B97-3c, D3        
  Giovanni Bistoni       : ETS/NOCV, ADLD/ADEX, COVALED                  
  Martin Brehm           : Molecular dynamics                            
  Ronald Cardenas        : ETS/NOCV                                      
  Martina Colucci        : COVALED                                       
  Sebastian Ehlert       : rSCAN, r2SCAN, r2SCAN-3c, D4, dhf basis sets  
  Marvin Friede          : D4 for Fr, Ra, Ac-Lr                          
  Lars Goerigk           : TD-DFT with DH, B97 family of functionals     
  Stefan Grimme          : VdW corrections, initial TS optimization, DFT functionals, gCP, sTDA/sTD-DF 
  Waldemar Hujo          : DFT-NL                                        
  H. Jonsson             : NEB                                           
  Holger Kruse           : gCP                                           
  Marcel Mueller         : wB97X-3c, vDZP basis set                      
  Hagen Neugebauer       : wr2SCAN, Native XTB                           
  Gianluca Regni         : ADLD/ADEX                                     
  Tobias Risthaus        : pre 6.0 range-separated hybrid DFT and stability analysis
  Lukas Wittmann         : regularized MP2, r2SCAN double-hybrids, wr2SCAN        
                                                                         
We gratefully acknowledge several colleagues who have allowed us to      
interface, adapt or use parts of their codes:                            
  Ed Valeev, F. Pavosevic, A. Kumar             : LibInt (2-el integral package), F12 methods 
  Garnet Chan, S. Sharma, J. Yang, R. Olivares  : DMRG                   
  Ulf Ekstrom                                   : XCFun DFT Library      
  Mihaly Kallay                                 : mrcc  (arbitrary order and MRCC methods)
  Frank Weinhold                                : gennbo (NPA and NBO analysis)           
  Simon Mueller                                 : openCOSMO-RS                            
  Christopher J. Cramer and Donald G. Truhlar   : smd solvation model                     
  S Lehtola, MJT Oliveira, MAL Marques          : LibXC Library                           
  Liviu Ungur et al                             : ANISO software                          


 Your calculation uses the libint2 library for the computation of 2-el integrals
 For citations please refer to: http://libint.valeyev.net

 Your ORCA version has been built with support for libXC version: 7.0.0
 For citations please refer to: https://libxc.gitlab.io

 This ORCA versions uses:
   CBLAS   interface :  Fast vector & matrix operations
   LAPACKE interface :  Fast linear algebra routines
   SCALAPACK package :  Parallel linear algebra routines
   Shared memory     :  Shared parallel matrices
   BLAS/LAPACK       :  OpenBLAS 0.3.29  USE64BITINT DYNAMIC_ARCH NO_AFFINITY Zen SINGLE_THREADED
        Core in use  :  Zen
   Copyright (c) 2011-2014, The OpenBLAS Project


  ***********************************
  * Starting time: Wed Sep 10 13:36:07 2025
  * Host name:     wyk-Server
  * Process ID:    2297465
  * Working dir.:  /home/wyk/Documents/code/openQDC/MGMR/singlepointcalc/66/prod
  ***********************************

Your calculation utilizes the atom-pairwise dispersion correction
with the Becke-Johnson damping scheme (D3BJ)


Warning: RI is on but no J-basis has been assigned. Assigning Def2/J (nothing to worry about!)
================================================================================

----- Orbital basis set information -----
Your calculation utilizes the basis: def2-SVP
   F. Weigend and R. Ahlrichs, Phys. Chem. Chem. Phys. 7, 3297 (2005).

----- AuxJ basis set information -----
Your calculation utilizes the auxiliary basis: def2/J
   H-Rn: F. Weigend, Phys. Chem. Chem. Phys. 8, 1057 (2006).
   Fr-Lr: K. Eichkorn, F. Weigend, O. Treutler, R. Ahlrichs; Theor. Chem. Acc. 97, 119 (1997).

================================================================================
                                        WARNINGS
                       Please study these warnings very carefully!
================================================================================


================================================================================
                                       INPUT FILE
================================================================================
NAME = orca.inp
|  1> ! B3LYP def2-SVP d3 EnGrad 
|  2> %pal nprocs 6 end 
|  3> *xyz 0 1 
|  4> C   2.36724583297008 -0.48058788502815 0.09490993724111
|  5> C   -0.86353613446344 1.80056069829118 -0.64240468328868
|  6> N   -1.10260880260229 0.69519021547623 -0.32901825626469
|  7> C   -1.37753881478983 -0.64092219804074 0.04943932767147
|  8> H   2.14702560909404 -1.50030588367926 -0.25462317109715
|  9> H   3.43642739053472 -0.27186706340613 -0.05380941901596
| 10> H   1.76897119185621 0.24614408123247 -0.47208455523652
| 11> H   2.12781222487716 -0.39769195340386 1.16535300169238
| 12> H   -2.14431392837552 -0.66278805675232 0.83935966185345
| 13> H   -1.74475207836522 -1.21257948731547 -0.81691222705239
| 14> H   -0.46138449073593 -1.11969846737391 0.42696538349702
| 15> *
| 16> 
| 17>                          ****END OF INPUT****
================================================================================

                     *******************************
                     * Energy+Gradient Calculation *
                     *******************************

---------------------------------
CARTESIAN COORDINATES (ANGSTROEM)
---------------------------------
  C      2.367246   -0.480588    0.094910
  C     -0.863536    1.800561   -0.642405
  N     -1.102609    0.695190   -0.329018
  C     -1.377539   -0.640922    0.049439
  H      2.147026   -1.500306   -0.254623
  H      3.436427   -0.271867   -0.053809
  H      1.768971    0.246144   -0.472085
  H      2.127812   -0.397692    1.165353
  H     -2.144314   -0.662788    0.839360
  H     -1.744752   -1.212579   -0.816912
  H     -0.461384   -1.119698    0.426965

----------------------------
CARTESIAN COORDINATES (A.U.)
----------------------------
  NO LB      ZA    FRAG     MASS         X           Y           Z
   0 C     6.0000    0    12.011    4.473446   -0.908179    0.179354
   1 C     6.0000    0    12.011   -1.631847    3.402567   -1.213969
   2 N     7.0000    0    14.007   -2.083629    1.313719   -0.621754
   3 C     6.0000    0    12.011   -2.603171   -1.211167    0.093427
   4 H     1.0000    0     1.008    4.057290   -2.835167   -0.481168
   5 H     1.0000    0     1.008    6.493907   -0.513754   -0.101685
   6 H     1.0000    0     1.008    3.342871    0.465145   -0.892111
   7 H     1.0000    0     1.008    4.020982   -0.751529    2.202198
   8 H     1.0000    0     1.008   -4.052166   -1.252488    1.586160
   9 H     1.0000    0     1.008   -3.297104   -2.291443   -1.543740
  10 H     1.0000    0     1.008   -0.871890   -2.115923    0.806848

--------------------------------
INTERNAL COORDINATES (ANGSTROEM)
--------------------------------
 C      0   0   0     0.000000000000     0.00000000     0.00000000
 C      1   0   0     4.023086356259     0.00000000     0.00000000
 N      2   1   0     1.173546205981    65.20217551     0.00000000
 C      3   2   1     1.415631673845   179.44395001   357.23995107
 H      1   2   3     1.100225039527   107.85207228    35.85456105
 H      1   2   3     1.099468522214   130.42918708   172.45249272
 H      1   2   3     1.098887915797    24.93808239   134.75151302
 H      1   2   3     1.100022064504    87.75442186   285.97550315
 H      4   3   2     1.101088699854   110.22927337   134.51606681
 H      4   3   2     1.101000750998   110.14882397   254.56061580
 H      4   3   2     1.100495971999   109.91650393    14.39017819

---------------------------
INTERNAL COORDINATES (A.U.)
---------------------------
 C      0   0   0     0.000000000000     0.00000000     0.00000000
 C      1   0   0     7.602531426445     0.00000000     0.00000000
 N      2   1   0     2.217680934806    65.20217551     0.00000000
 C      3   2   1     2.675156170072   179.44395001   357.23995107
 H      1   2   3     2.079124010388   107.85207228    35.85456105
 H      1   2   3     2.077694399852   130.42918708   172.45249272
 H      1   2   3     2.076597212732    24.93808239   134.75151302
 H      1   2   3     2.078740443184    87.75442186   285.97550315
 H      4   3   2     2.080756091879   110.22927337   134.51606681
 H      4   3   2     2.080589892629   110.14882397   254.56061580
 H      4   3   2     2.079635998562   109.91650393    14.39017819

---------------------
BASIS SET INFORMATION
---------------------
There are 3 groups of distinct atoms

 Group   1 Type C   : 7s4p1d contracted to 3s2p1d pattern {511/31/1}
 Group   2 Type N   : 7s4p1d contracted to 3s2p1d pattern {511/31/1}
 Group   3 Type H   : 4s1p contracted to 2s1p pattern {31/1}

Atom   0C    basis set group =>   1
Atom   1C    basis set group =>   1
Atom   2N    basis set group =>   2
Atom   3C    basis set group =>   1
Atom   4H    basis set group =>   3
Atom   5H    basis set group =>   3
Atom   6H    basis set group =>   3
Atom   7H    basis set group =>   3
Atom   8H    basis set group =>   3
Atom   9H    basis set group =>   3
Atom  10H    basis set group =>   3
---------------------------------
AUXILIARY/J BASIS SET INFORMATION
---------------------------------
There are 3 groups of distinct atoms

 Group   1 Type C   : 12s5p4d2f1g contracted to 6s4p3d1f1g pattern {711111/2111/211/2/1}
 Group   2 Type N   : 12s5p4d2f1g contracted to 6s4p3d1f1g pattern {711111/2111/211/2/1}
 Group   3 Type H   : 5s2p1d contracted to 3s1p1d pattern {311/2/1}

Atom   0C    basis set group =>   1
Atom   1C    basis set group =>   1
Atom   2N    basis set group =>   2
Atom   3C    basis set group =>   1
Atom   4H    basis set group =>   3
Atom   5H    basis set group =>   3
Atom   6H    basis set group =>   3
Atom   7H    basis set group =>   3
Atom   8H    basis set group =>   3
Atom   9H    basis set group =>   3
Atom  10H    basis set group =>   3


           ************************************************************
           *        Program running with 6 parallel MPI-processes     *
           *              working on a common directory               *
           ************************************************************
------------------------------------------------------------------------------
                             ORCA STARTUP CALCULATIONS
                           -- RI-GTO INTEGRALS CHOSEN --
------------------------------------------------------------------------------
------------------------------------------------------------------------------
                   ___                                                        
                  /   \      - P O W E R E D   B Y -                         
                 /     \                                                     
                 |  |  |   _    _      __       _____    __    __             
                 |  |  |  | |  | |    /  \     |  _  \  |  |  /  |          
                  \  \/   | |  | |   /    \    | | | |  |  | /  /          
                 / \  \   | |__| |  /  /\  \   | |_| |  |  |/  /          
                |  |  |   |  __  | /  /__\  \  |    /   |      \           
                |  |  |   | |  | | |   __   |  |    \   |  |\   \          
                \     /   | |  | | |  |  |  |  | |\  \  |  | \   \       
                 \___/    |_|  |_| |__|  |__|  |_| \__\ |__|  \__/        
                                                                              
                      - O R C A' S   B I G   F R I E N D -                    
                                      &                                       
                       - I N T E G R A L  F E E D E R -                       
                                                                              
 v1 FN, 2020, v2 2021, v3 2022-2024                                           
------------------------------------------------------------------------------


----------------------
SHARK INTEGRAL PACKAGE
----------------------

Number of atoms                             ...     11
Number of basis functions                   ...     91
Number of shells                            ...     45
Maximum angular momentum                    ...      2
Integral batch strategy                     ... SHARK/LIBINT Hybrid
RI-J (if used) integral strategy            ... SPLIT-RIJ (Revised 2003 algorithm where possible)
Printlevel                                  ...      1
Contraction scheme used                     ... SEGMENTED contraction
Prescreening option                         ... SCHWARTZ
   Thresh                                   ... 2.500e-11
   Tcut                                     ... 2.500e-12
   Tpresel                                  ... 2.500e-12 
Coulomb Range Separation                    ... NOT USED
Exchange Range Separation                   ... NOT USED
Multipole approximations                    ... NOT USED
Finite Nucleus Model                        ... NOT USED
CABS basis                                  ... NOT available
Auxiliary Coulomb fitting basis             ... AVAILABLE
   # of basis functions in Aux-J            ...    273
   # of shells in Aux-J                     ...     95
   Maximum angular momentum in Aux-J        ...      4
Auxiliary J/K fitting basis                 ... NOT available
Auxiliary Correlation fitting basis         ... NOT available
Auxiliary 'external' fitting basis          ... NOT available

Checking pre-screening integrals            ... done (  0.0 sec) Dimension = 45
   => SHARK Basis and OBASIS are compatible. Storing Pre-screening
Shell pair information
Shell pair cut-off parameter TPreSel        ...   2.5e-12
Total number of shell pairs                 ...      1035
Shell pairs after pre-screening             ...       995
Total number of primitive shell pairs       ...      3559
Primitive shell pairs kept                  ...      2669
          la=0 lb=0:    341 shell pairs
          la=1 lb=0:    372 shell pairs
          la=1 lb=1:    117 shell pairs
          la=2 lb=0:     98 shell pairs
          la=2 lb=1:     57 shell pairs
          la=2 lb=2:     10 shell pairs

Checking whether 4 symmetric matrices of dimension 91 fit in memory
:Max Core in MB      =   4096.00
 MB in use           =      4.52
 MB left             =   4091.48
 MB needed           =      0.13
 Data fit in memory  = YES
Calculating RI/J V-Matrix + Cholesky decomp.... done (  0.0 sec)
Calculating Nuclear repulsion               ... done (  0.0 sec) ENN=    103.810723898721 Eh

Diagonalization of the overlap matrix:
Smallest eigenvalue                        ... 6.650e-03
Time for diagonalization                   ...    0.001 sec
Threshold for overlap eigenvalues          ... 1.000e-07
Number of eigenvalues below threshold      ... 0
Time for construction of square roots      ...    0.001 sec
Total time needed                          ...    0.002 sec

-------------------
DFT GRID GENERATION
-------------------

General Integration Accuracy     IntAcc      ... 4.388
Radial Grid Type                 RadialGrid  ... OptM3 with GC (2021)
Angular Grid (max. ang.)         AngularGrid ... 4 (Lebedev-302)
Angular grid pruning method      GridPruning ... 4 (adaptive)
Weight generation scheme         WeightScheme... mBecke (2022)
Basis function cutoff            BFCut       ... 1.0000e-11
Integration weight cutoff        WCut        ... 1.0000e-14
Partially contracted basis set               ... off
Rotationally invariant grid construction     ... off
Angular grids for H and He will be reduced by one unit

Total number of grid points                  ...    47160
Total number of batches                      ...      742
Average number of points per batch           ...       63
Average number of grid points per atom       ...     4287

--------------------
COSX GRID GENERATION
--------------------

GRIDX 1
-------
General Integration Accuracy     IntAcc      ... 3.816
Radial Grid Type                 RadialGrid  ... OptM3 with GC (2021)
Angular Grid (max. ang.)         AngularGrid ... 1 (Lebedev-50)
Angular grid pruning method      GridPruning ... 4 (adaptive)
Weight generation scheme         WeightScheme... mBecke (2022)
Basis function cutoff            BFCut       ... 1.0000e-11
Integration weight cutoff        WCut        ... 1.0000e-14
Partially contracted basis set               ... on
Rotationally invariant grid construction     ... off
Angular grids for H and He will be reduced by one unit

Total number of grid points                  ...     6077
Total number of batches                      ...       53
Average number of points per batch           ...      114
Average number of grid points per atom       ...      552
UseSFitting                                  ... on

GRIDX 2
-------
General Integration Accuracy     IntAcc      ... 4.020
Radial Grid Type                 RadialGrid  ... OptM3 with GC (2021)
Angular Grid (max. ang.)         AngularGrid ... 2 (Lebedev-110)
Angular grid pruning method      GridPruning ... 4 (adaptive)
Weight generation scheme         WeightScheme... mBecke (2022)
Basis function cutoff            BFCut       ... 1.0000e-11
Integration weight cutoff        WCut        ... 1.0000e-14
Partially contracted basis set               ... on
Rotationally invariant grid construction     ... off
Angular grids for H and He will be reduced by one unit

Total number of grid points                  ...    12807
Total number of batches                      ...      106
Average number of points per batch           ...      120
Average number of grid points per atom       ...     1164
UseSFitting                                  ... on

GRIDX 3
-------
General Integration Accuracy     IntAcc      ... 4.338
Radial Grid Type                 RadialGrid  ... OptM3 with GC (2021)
Angular Grid (max. ang.)         AngularGrid ... 3 (Lebedev-194)
Angular grid pruning method      GridPruning ... 4 (adaptive)
Weight generation scheme         WeightScheme... mBecke (2022)
Basis function cutoff            BFCut       ... 1.0000e-11
Integration weight cutoff        WCut        ... 1.0000e-14
Partially contracted basis set               ... on
Rotationally invariant grid construction     ... off
Angular grids for H and He will be reduced by one unit

Total number of grid points                  ...    28194
Total number of batches                      ...      226
Average number of points per batch           ...      124
Average number of grid points per atom       ...     2563
UseSFitting                                  ... on
Grids setup in   0.4 sec
Initializing property integral containers    ... done (  0.0 sec)

SHARK setup successfully completed in   0.5 seconds

Maximum memory used throughout the entire STARTUP-calculation: 13.7 MB


           ************************************************************
           *        Program running with 6 parallel MPI-processes     *
           *              working on a common directory               *
           ************************************************************
-------------------------------------------------------------------------------
                                 ORCA GUESS
                   Start orbitals & Density for SCF / CASSCF
-------------------------------------------------------------------------------

------------
SCF SETTINGS
------------
Hamiltonian:
 Density Functional     Method          .... DFT(GTOs)
 Exchange Functional    Exchange        .... B88
   X-Alpha parameter    XAlpha          ....  0.666667
   Becke's b parameter  XBeta           ....  0.004200
 Correlation Functional Correlation     .... LYP
 LDA part of GGA corr.  LDAOpt          .... VWN-5
 Gradients option       PostSCFGGA      .... off
 Hybrid DFT is turned on
   Fraction HF Exchange ScalHFX         ....  0.200000
   Scaling of DF-GGA-X  ScalDFX         ....  0.720000
   Scaling of DF-GGA-C  ScalDFC         ....  0.810000
   Scaling of DF-LDA-C  ScalLDAC        ....  1.000000
   Perturbative correction              ....  0.000000
   NL short-range parameter             ....  4.800000
 RI-approximation to the Coulomb term is turned on
   Number of AuxJ basis functions       .... 273
   RIJ-COSX (HFX calculated with COS-X)).... on


General Settings:
 Integral files         IntName         .... orca
 Hartree-Fock type      HFTyp           .... RHF
 Total Charge           Charge          ....    0
 Multiplicity           Mult            ....    1
 Number of Electrons    NEL             ....   32
 Basis Dimension        Dim             ....   91
 Nuclear Repulsion      ENuc            ....    103.8107238987 Eh

Convergence Acceleration:
 AO-DIIS                CNVDIIS         .... on
   Start iteration      DIISMaxIt       ....    12
   Startup error        DIISStart       ....  0.200000
   # of expansion vecs  DIISMaxEq       ....     5
   Bias factor          DIISBfac        ....   1.050
   Max. coefficient     DIISMaxC        ....  10.000
 MO-DIIS                CNVKDIIS        .... off
 Trust-Rad. Augm. Hess. CNVTRAH         .... auto
   Auto Start mean grad. ratio tolernc. ....  1.125000
   Auto Start start iteration           ....    50
   Auto Start num. interpolation iter.  ....    10
   Max. Number of Micro iterations      ....    24
   Max. Number of Macro iterations      .... Maxiter - #DIIS iter
   Number of Davidson start vectors     ....     2
   Converg. threshold    (grad. norm)   ....   1.000e-05
   Grad. Scal. Fac. for Micro threshold ....   0.100
   Minimum threshold for Micro iter.    ....   1.000e-02
   NR start threshold (gradient norm)   ....   1.000e-04
   Initial trust radius                 ....   0.400
   Minimum AH scaling param. (alpha)    ....   1.000
   Maximum AH scaling param. (alpha)    .... 1000.000
   Quad. conv. algorithm                .... NR
   White noise on init. David. guess    .... on
   Maximum white noise                  ....   0.010
   Pseudo random numbers                .... off
   Inactive MOs                         .... canonical
   Orbital update algorithm             .... Taylor
   Preconditioner                       .... Diag
   Full preconditioner red. dimension   ....   250
 SOSCF                 CNVSOSCF           .... on
   Start iteration     SOSCFMaxIt         ....   150
   Startup grad/error  SOSCFStart         ....  0.003300
   Hessian update      SOSCFHessUp        .... L-BFGS
   Autom. constraints  SOSCFAutoConstrain .... off
 Level Shifting         CNVShift        .... on
   Level shift para.    LevelShift      ....    0.2500
   Turn off err/grad.   ShiftErr        ....    0.0010
 Zerner damping         CNVZerner       .... off
 Static damping         CNVDamp         .... on
   Fraction old density DampFac         ....    0.7000
   Max. Damping (<1)    DampMax         ....    0.9800
   Min. Damping (>=0)   DampMin         ....    0.0000
   Turn off err/grad.   DampErr         ....    0.1000

SCF Procedure:
 Maximum # iterations   MaxIter         ....   125
 SCF integral mode      SCFMode         .... Direct
   Integral package                     .... SHARK and LIBINT hybrid scheme
 Reset frequency        DirectResetFreq ....    20
 Integral Threshold     Thresh          ....  2.500e-11 Eh
 Primitive CutOff       TCut            ....  2.500e-12 Eh

Convergence Tolerance:
 Convergence Check Mode ConvCheckMode   .... Total+1el-Energy
 Convergence forced     ConvForced      .... 0
 Energy Change          TolE            ....  1.000e-08 Eh
 1-El. energy change                    ....  1.000e-05 Eh
 Orbital Gradient       TolG            ....  1.000e-05
 Orbital Rotation angle TolX            ....  1.000e-05
 DIIS Error             TolErr          ....  5.000e-07

------------------------------
INITIAL GUESS: MODEL POTENTIAL
------------------------------
Loading Hartree-Fock densities                     ... done
Calculating cut-offs                               ... done
Initializing the effective Hamiltonian             ... done
Setting up the integral package (SHARK)            ... done
Starting the Coulomb interaction                   ... done (   0.0 sec)
Making the grid                                    ... done (   0.1 sec)
Mapping shells                                     ... done
Starting the XC term evaluation                    ... done (   0.0 sec)
  promolecular density results
     # of electrons  =     31.999699483
     EX              =    -23.961106696
     EC              =     -1.008167684
     EX+EC           =    -24.969274380
Transforming the Hamiltonian                       ... done (   0.0 sec)
Diagonalizing the Hamiltonian                      ... done (   0.0 sec)
Back transforming the eigenvectors                 ... done (   0.0 sec)
Now organizing SCF variables                       ... done
                      ------------------
                      INITIAL GUESS DONE (   0.1 sec)
                      ------------------
             **** ENERGY FILE WAS UPDATED (orca.en.tmp) ****
Finished Guess after   0.2 sec
Maximum memory used throughout the entire GUESS-calculation: 6.8 MB


           ************************************************************
           *        Program running with 6 parallel MPI-processes     *
           *              working on a common directory               *
           ************************************************************

-------------------------------------------------------------------------------------------
                                      ORCA LEAN-SCF
                              memory conserving SCF solver
-------------------------------------------------------------------------------------------

----------------------------------------D-I-I-S--------------------------------------------
Iteration    Energy (Eh)           Delta-E    RMSDP     MaxDP     DIISErr   Damp  Time(sec)
-------------------------------------------------------------------------------------------
               ***  Starting incremental Fock matrix formation  ***
    1    -172.8660052049030469     0.00e+00  9.34e-03  8.64e-02  1.95e-01  0.700   0.3
    2    -172.9227290485499680    -5.67e-02  6.67e-03  5.29e-02  1.01e-01  0.700   0.2
                               ***Turning on AO-DIIS***
    3    -172.9467390467463588    -2.40e-02  3.10e-03  3.07e-02  3.75e-02  0.700   0.2
    4    -172.9607085520217993    -1.40e-02  5.43e-03  5.06e-02  1.83e-02  0.000   0.2
    5    -172.9904586541949243    -2.98e-02  1.02e-03  1.23e-02  5.91e-03  0.000   0.2
                              *** Initializing SOSCF ***
---------------------------------------S-O-S-C-F--------------------------------------
Iteration    Energy (Eh)           Delta-E    RMSDP     MaxDP     MaxGrad    Time(sec)
--------------------------------------------------------------------------------------
    6    -172.9906447736583459    -1.86e-04  2.44e-04  1.32e-03  1.89e-03     0.2
               *** Restarting incremental Fock matrix formation ***
    7    -172.9906960389129722    -5.13e-05  1.47e-04  8.02e-04  2.37e-04     0.3
    8    -172.9906957716444253     2.67e-07  5.83e-05  4.63e-04  2.85e-04     0.3
    9    -172.9906969024117984    -1.13e-06  4.43e-05  3.21e-04  1.05e-04     0.3
   10    -172.9906967426961728     1.60e-07  2.61e-05  2.45e-04  1.14e-04     0.3
   11    -172.9906970193537177    -2.77e-07  1.06e-06  6.07e-06  1.85e-06     0.3
                  *** Gradient check signals convergence ***

               *****************************************************
               *                     SUCCESS                       *
               *           SCF CONVERGED AFTER  11 CYCLES          *
               *****************************************************

Recomputing exchange energy using gridx3       ... done (    0.427 sec)
Old exchange energy                            :     -4.895439774 Eh
New exchange energy                            :     -4.895449675 Eh
Exchange energy change after final integration :     -0.000009901 Eh
Total energy after final integration           :   -172.990706921 Eh
             **** ENERGY FILE WAS UPDATED (orca.en.tmp) ****

----------------
TOTAL SCF ENERGY
----------------

Total Energy       :       -172.99070692051697 Eh           -4707.31645 eV

Components:
Nuclear Repulsion  :        103.81072389872112 Eh            2824.83341 eV
Electronic Energy  :       -276.80142091812269 Eh           -7532.14959 eV
One Electron Energy:       -436.66734776907231 Eh          -11882.32262 eV
Two Electron Energy:        159.86592685094962 Eh            4350.17303 eV

Virial components:
Potential Energy   :       -344.06456089475330 Eh           -9362.47268 eV
Kinetic Energy     :        171.07385397423636 Eh            4655.15623 eV
Virial Ratio       :          2.01120482704838

DFT components:
N(Alpha)           :       16.000004094500 electrons
N(Beta)            :       16.000004094500 electrons
N(Total)           :       32.000008189000 electrons
E(X)               :      -19.424012740209 Eh       
E(C)               :       -1.204806820849 Eh       
E(XC)              :      -20.628819561059 Eh       

---------------
SCF CONVERGENCE
---------------

  Last Energy change         ...    2.7666e-07  Tolerance :   1.0000e-08
  Last MAX-Density change    ...    6.0720e-06  Tolerance :   1.0000e-07
  Last RMS-Density change    ...    1.0621e-06  Tolerance :   5.0000e-09
  Last DIIS Error            ...    1.8861e-03  Tolerance :   5.0000e-07
  Last Orbital Gradient      ...    1.8527e-06  Tolerance :   1.0000e-05
  Last Orbital Rotation      ...    3.0887e-06  Tolerance :   1.0000e-05


----------------
ORBITAL ENERGIES
----------------

  NO   OCC          E(Eh)            E(eV) 
   0   2.0000     -14.361909      -390.8074 
   1   2.0000     -10.261226      -279.2222 
   2   2.0000     -10.215067      -277.9661 
   3   2.0000     -10.175815      -276.8980 
   4   2.0000      -0.943763       -25.6811 
   5   2.0000      -0.766418       -20.8553 
   6   2.0000      -0.684370       -18.6227 
   7   2.0000      -0.555129       -15.1058 
   8   2.0000      -0.476725       -12.9723 
   9   2.0000      -0.475939       -12.9510 
  10   2.0000      -0.392099       -10.6696 
  11   2.0000      -0.390752       -10.6329 
  12   2.0000      -0.389017       -10.5857 
  13   2.0000      -0.338760        -9.2181 
  14   2.0000      -0.338021        -9.1980 
  15   2.0000      -0.297789        -8.1033 
  16   0.0000       0.024431         0.6648 
  17   0.0000       0.026205         0.7131 
  18   0.0000       0.045333         1.2336 
  19   0.0000       0.088498         2.4081 
  20   0.0000       0.124575         3.3899 
  21   0.0000       0.131809         3.5867 
  22   0.0000       0.135933         3.6989 
  23   0.0000       0.140714         3.8290 
  24   0.0000       0.156292         4.2529 
  25   0.0000       0.165483         4.5030 
  26   0.0000       0.295088         8.0297 
*Only the first 10 virtual orbitals were printed.

                    ********************************
                    * MULLIKEN POPULATION ANALYSIS *
                    ********************************

-----------------------
MULLIKEN ATOMIC CHARGES
-----------------------
   0 C :   -0.128663
   1 C :   -0.195521
   2 N :   -0.090981
   3 C :    0.122601
   4 H :    0.023823
   5 H :    0.030880
   6 H :    0.044569
   7 H :    0.028665
   8 H :    0.055208
   9 H :    0.055338
  10 H :    0.054081
Sum of atomic charges:   -0.0000000

--------------------------------
MULLIKEN REDUCED ORBITAL CHARGES
--------------------------------
  0 C s       :     3.062352  s :     3.062352
      pz      :     1.011570  p :     3.044832
      px      :     1.022270
      py      :     1.010992
      dz2     :     0.006498  d :     0.021479
      dxz     :     0.002362
      dyz     :     0.003335
      dx2y2   :     0.006101
      dxy     :     0.003183

  1 C s       :     3.863236  s :     3.863236
      pz      :     0.643963  p :     2.276389
      px      :     0.627576
      py      :     1.004850
      dz2     :     0.006621  d :     0.055896
      dxz     :     0.001997
      dyz     :     0.016575
      dx2y2   :     0.014238
      dxy     :     0.016465

  2 N s       :     3.371163  s :     3.371163
      pz      :     1.342588  p :     3.699052
      px      :     1.353384
      py      :     1.003081
      dz2     :     0.002288  d :     0.020766
      dxz     :     0.000954
      dyz     :     0.006164
      dx2y2   :     0.005296
      dxy     :     0.006063

  3 C s       :     2.961910  s :     2.961910
      pz      :     1.022505  p :     2.872750
      px      :     1.037308
      py      :     0.812936
      dz2     :     0.005395  d :     0.042739
      dxz     :     0.007514
      dyz     :     0.009995
      dx2y2   :     0.011179
      dxy     :     0.008656

  4 H s       :     0.952474  s :     0.952474
      pz      :     0.005854  p :     0.023703
      px      :     0.005331
      py      :     0.012518

  5 H s       :     0.945443  s :     0.945443
      pz      :     0.005006  p :     0.023677
      px      :     0.013483
      py      :     0.005188

  6 H s       :     0.931409  s :     0.931409
      pz      :     0.007259  p :     0.024022
      px      :     0.007662
      py      :     0.009101

  7 H s       :     0.947645  s :     0.947645
      pz      :     0.013374  p :     0.023689
      px      :     0.005339
      py      :     0.004976

  8 H s       :     0.922490  s :     0.922490
      pz      :     0.010021  p :     0.022302
      px      :     0.009820
      py      :     0.002462

  9 H s       :     0.922346  s :     0.922346
      pz      :     0.010833  p :     0.022316
      px      :     0.006082
      py      :     0.005401

 10 H s       :     0.923529  s :     0.923529
      pz      :     0.006007  p :     0.022389
      px      :     0.011855
      py      :     0.004528



                     *******************************
                     * LOEWDIN POPULATION ANALYSIS *
                     *******************************

----------------------
LOEWDIN ATOMIC CHARGES
----------------------
   0 C :   -0.113574
   1 C :   -0.143250
   2 N :   -0.014582
   3 C :    0.027579
   4 H :    0.023078
   5 H :    0.030757
   6 H :    0.030242
   7 H :    0.025904
   8 H :    0.044585
   9 H :    0.044855
  10 H :    0.044407

-------------------------------
LOEWDIN REDUCED ORBITAL CHARGES
-------------------------------
  0 C s       :     2.847324  s :     2.847324
      pz      :     1.068693  p :     3.212206
      px      :     1.075684
      py      :     1.067829
      dz2     :     0.016396  d :     0.054044
      dxz     :     0.005880
      dyz     :     0.008387
      dx2y2   :     0.015428
      dxy     :     0.007953

  1 C s       :     3.456692  s :     3.456692
      pz      :     0.695059  p :     2.574641
      px      :     0.674638
      py      :     1.204944
      dz2     :     0.013815  d :     0.111918
      dxz     :     0.003596
      dyz     :     0.031569
      dx2y2   :     0.032789
      dxy     :     0.030149

  2 N s       :     3.120354  s :     3.120354
      pz      :     1.299015  p :     3.852896
      px      :     1.298394
      py      :     1.255486
      dz2     :     0.004752  d :     0.041333
      dxz     :     0.001691
      dyz     :     0.012043
      dx2y2   :     0.011190
      dxy     :     0.011658

  3 C s       :     2.827475  s :     2.827475
      pz      :     1.068652  p :     3.041824
      px      :     1.076828
      py      :     0.896344
      dz2     :     0.012094  d :     0.103122
      dxz     :     0.019480
      dyz     :     0.024258
      dx2y2   :     0.026476
      dxy     :     0.020814

  4 H s       :     0.913332  s :     0.913332
      pz      :     0.014955  p :     0.063590
      px      :     0.013411
      py      :     0.035225

  5 H s       :     0.905471  s :     0.905471
      pz      :     0.012596  p :     0.063772
      px      :     0.038061
      py      :     0.013115

  6 H s       :     0.904574  s :     0.904574
      pz      :     0.019619  p :     0.065184
      px      :     0.020737
      py      :     0.024828

  7 H s       :     0.910395  s :     0.910395
      pz      :     0.037871  p :     0.063701
      px      :     0.013551
      py      :     0.012280

  8 H s       :     0.891861  s :     0.891861
      pz      :     0.028092  p :     0.063554
      px      :     0.027225
      py      :     0.008237

  9 H s       :     0.891587  s :     0.891587
      pz      :     0.030738  p :     0.063558
      px      :     0.015643
      py      :     0.017177

 10 H s       :     0.891228  s :     0.891228
      pz      :     0.015717  p :     0.064366
      px      :     0.033950
      py      :     0.014698



                      *****************************
                      * MAYER POPULATION ANALYSIS *
                      *****************************

  NA   - Mulliken gross atomic population
  ZA   - Total nuclear charge
  QA   - Mulliken gross atomic charge
  VA   - Mayer's total valence
  BVA  - Mayer's bonded valence
  FA   - Mayer's free valence

  ATOM       NA         ZA         QA         VA         BVA        FA
  0 C      6.1287     6.0000    -0.1287     3.9898     3.9898     0.0000
  1 C      6.1955     6.0000    -0.1955     2.5595     2.5595    -0.0000
  2 N      7.0910     7.0000    -0.0910     3.4143     3.4143    -0.0000
  3 C      5.8774     6.0000     0.1226     3.8772     3.8772    -0.0000
  4 H      0.9762     1.0000     0.0238     0.9891     0.9891    -0.0000
  5 H      0.9691     1.0000     0.0309     0.9909     0.9909    -0.0000
  6 H      0.9554     1.0000     0.0446     1.0125     1.0125    -0.0000
  7 H      0.9713     1.0000     0.0287     0.9901     0.9901    -0.0000
  8 H      0.9448     1.0000     0.0552     0.9897     0.9897     0.0000
  9 H      0.9447     1.0000     0.0553     0.9896     0.9896     0.0000
 10 H      0.9459     1.0000     0.0541     1.0074     1.0074    -0.0000

  Mayer bond orders larger than 0.100000
B(  0-C ,  4-H ) :   0.9939 B(  0-C ,  5-H ) :   0.9914 B(  0-C ,  6-H ) :   0.9951 
B(  0-C ,  7-H ) :   0.9961 B(  1-C ,  2-N ) :   2.4362 B(  2-N ,  3-C ) :   0.9578 
B(  3-C ,  8-H ) :   0.9625 B(  3-C ,  9-H ) :   0.9629 B(  3-C , 10-H ) :   0.9579 


-------
TIMINGS
-------

Total SCF time: 0 days 0 hours 0 min 3 sec 

Total time                  ....       3.769 sec
Sum of individual times     ....       3.505 sec  ( 93.0%)

SCF preparation             ....       0.195 sec  (  5.2%)
Fock matrix formation       ....       3.147 sec  ( 83.5%)
  Startup                   ....       0.004 sec  (  0.1% of F)
  Split-RI-J                ....       0.241 sec  (  7.7% of F)
  Chain of spheres X        ....       2.256 sec  ( 71.7% of F)
  XC integration            ....       0.768 sec  ( 24.4% of F)
    XC Preparation          ....       0.000 sec  (  0.0% of XC)
    Basis function eval.    ....       0.224 sec  ( 29.2% of XC)
    Density eval.           ....       0.099 sec  ( 12.9% of XC)
    XC-Functional eval.     ....       0.064 sec  (  8.3% of XC)
    XC-Potential eval.      ....       0.106 sec  ( 13.8% of XC)
Diagonalization             ....       0.000 sec  (  0.0%)
Density matrix formation    ....       0.022 sec  (  0.6%)
Total Energy calculation    ....       0.013 sec  (  0.3%)
Population analysis         ....       0.017 sec  (  0.5%)
Orbital Transformation      ....       0.011 sec  (  0.3%)
Orbital Orthonormalization  ....       0.000 sec  (  0.0%)
DIIS solution               ....       0.058 sec  (  1.5%)
SOSCF solution              ....       0.041 sec  (  1.1%)
Finished LeanSCF after   3.8 sec

Maximum memory used throughout the entire LEANSCF-calculation: 8.1 MB


-------------------------------------------------------------------------------
                          DFT DISPERSION CORRECTION                            
                                                                               
                              DFTD3 V3.1  Rev 1                                
                          USING Becke-Johnson damping                          
-------------------------------------------------------------------------------
The B3LYP functional is recognized
Active option DFTDOPT                   ...         4   

molecular C6(AA) [au] = 1009.097674 


            DFT-D V3
 parameters
 s6 scaling factor         :     1.0000 
 a1 scaling factor         :     0.3981 
 s8 scaling factor         :     1.9889 
 a2 scaling factor         :     4.4211 
 ad hoc parameters k1-k3   :    16.0000     1.3333    -4.0000 

 Edisp/kcal,au: -5.821296116920  -0.009276824871 
 E6   /kcal   :  -2.944237432 
 E8   /kcal   :  -2.877058685 
 % E8         :  49.422991496 

-------------------------   ----------------
Dispersion correction           -0.009276825
-------------------------   ----------------


-------------------------   --------------------
FINAL SINGLE POINT ENERGY      -172.999983745388
-------------------------   --------------------



           ************************************************************
           *        Program running with 6 parallel MPI-processes     *
           *              working on a common directory               *
           ************************************************************
------------------------------------------------------------------------------
                         ORCA SCF GRADIENT CALCULATION
------------------------------------------------------------------------------

Nuc. rep. gradient        (SHARK) ... done (  0.0 sec)
HCore & Overlap gradient  (SHARK) ... done (  0.0 sec)
Split-RIJ-J gradient      (SHARK) ... done (  0.1 sec)
done (  1.3 sec)
XC gradient                       ... done (  0.3 sec)
Dispersion correction             ... done (  0.0 sec)

-------------------
DISPERSION GRADIENT
-------------------

   1   C   :    0.000484616   -0.000097768    0.000037390
   2   C   :   -0.000204151    0.000626895   -0.000180609
   3   N   :   -0.000305412    0.000155995   -0.000051412
   4   C   :   -0.000342453   -0.000126851    0.000030222
   5   H   :    0.000172612   -0.000073536   -0.000012429
   6   H   :    0.000067771   -0.000005423    0.000000321
   7   H   :    0.000321435   -0.000023534   -0.000025632
   8   H   :    0.000191611   -0.000026422    0.000081729
   9   H   :   -0.000104842   -0.000109495    0.000076703
  10   H   :   -0.000108719   -0.000147022   -0.000026464
  11   H   :   -0.000172469   -0.000172839    0.000070181

Difference to translation invariance:
           :   -0.0000000000   -0.0000000000   -0.0000000000

Difference to rotation invariance:
           :   -0.0000000000   -0.0000000000    0.0000000000

Norm of the Dispersion gradient    ...    0.0011330411
RMS gradient                       ...    0.0001972371
MAX gradient                       ...    0.0006268947

------------------
CARTESIAN GRADIENT
------------------

   1   C   :   -0.000023063    0.000236489    0.000000278
   2   C   :    0.000040779    0.000038955   -0.000005117
   3   N   :   -0.000112535   -0.000066345    0.000051028
   4   C   :    0.000028848    0.000016120   -0.000033647
   5   H   :    0.000005697   -0.000001479    0.000044296
   6   H   :    0.000052821   -0.000061760    0.000012221
   7   H   :    0.000037193   -0.000094952   -0.000105115
   8   H   :    0.000045866   -0.000063022    0.000018495
   9   H   :   -0.000088213   -0.000010190    0.000062187
  10   H   :    0.000052671    0.000029007   -0.000037412
  11   H   :   -0.000040063   -0.000022823   -0.000007214

Difference to translation invariance:
           :    0.0000000000    0.0000000000   -0.0000000000

Difference to rotation invariance:
           :    0.0000071338   -0.0000253931    0.0000872624

Norm of the Cartesian gradient     ...    0.0003702997
RMS gradient                       ...    0.0000644609
MAX gradient                       ...    0.0002364889

-------
TIMINGS
-------

Total SCF gradient time     ....        1.841 sec

Densities                   ....       0.000 sec  (  0.0%)
One electron gradient       ....       0.023 sec  (  1.2%)
RI-J Coulomb gradient       ....       0.135 sec  (  7.3%)
COSX gradient               ....       1.307 sec  ( 71.0%)
XC gradient                 ....       0.337 sec  ( 18.3%)

Maximum memory used throughout the entire SCFGRAD-calculation: 26.7 MB


           ************************************************************
           *        Program running with 6 parallel MPI-processes     *
           *              working on a common directory               *
           ************************************************************

------------------------------------------------------------------------------
                              ORCA PROPERTY CALCULATIONS
------------------------------------------------------------------------------

GBWName                                 ... orca.gbw
Number of atoms                         ...     11
Number of basis functions               ...     91
Max core memory                         ...   4096 MB

Electric properties:
Dipole moment                           ... YES
Quadrupole moment                       ...  NO
Static polarizability (Dipole/Dipole)   ...  NO
Static polarizability (Dipole/Quad.)    ...  NO
Static polarizability (Quad./Quad.)     ...  NO
Static polarizability (Velocity)        ...  NO
Static hyperpolarizability              ...  NO

Atomic electric properties:
Dipole moment                           ...  NO
Quadrupole moment                       ...  NO
Static polarizability                   ...  NO

Choice of electric origin               ... Center of mass
Position of electric origin             ...    -0.289866     0.428130    -0.322692

General magnetic properties:
Magnetizability                         ...  NO

EPR properties:
g-Tensor (aka g-matrix)                 ...  NO
Zero-Field splitting spin-orbit         ...  NO
Zero-field splitting spin-spin          ...  NO
Hyperfine couplings                     ...  NO (   0 nuclei)
Quadrupole couplings                    ...  NO (   0 nuclei)
Contact density                         ...  NO (   0 nuclei)

NMR properties:
Chemical shifts                         ...  NO (   0 nuclei)
Spin-rotation constants                 ...  NO (   0 nuclei)
Spin-spin couplings                     ...  NO (   0 nuclei,    0 pairs)

Choice of magnetic origin               ... GIAO
Position of magnetic origin             ...     0.000000     0.000000     0.000000

Properties with geometric perturbations:
SCF Hessian                             ...  NO
IR spectrum                             ...  NO
VCD spectrum                            ...  NO
X-ray spectroscopy properties:
SCF XES/XAS/RIXS spectra                ...  NO

SCF SOC stabilization energy            ...  NO
Diagonal Born-Oppenheimer correction    ...  NO

-------------
DIPOLE MOMENT
-------------

Method             : SCF
Type of density    : Electron Density
Multiplicity       :   1
Irrep              :   0
Energy             :  -172.9907069205169705 Eh
Basis              : AO
                                X                 Y                 Z
Electronic contribution:     -6.101271737       4.717161344      -1.514191491
Nuclear contribution   :      5.814768004      -6.099958867       1.903229673
                        -----------------------------------------
Total Dipole Moment    :     -0.286503733      -1.382797523       0.389038182
                        -----------------------------------------
Magnitude (a.u.)       :      1.464774415
Magnitude (Debye)      :      3.723160678



--------------------
Rotational spectrum 
--------------------
 
Rotational constants in cm-1:             0.318280             0.104306             0.081007 
Rotational constants in MHz :          9541.797742          3127.001730          2428.526161 

Dipole components along the rotational axes: 
x,y,z [a.u.] :    -0.193411    -1.451947    -0.002555 
x,y,z [Debye]:    -0.491613    -3.690556    -0.006494 

 

Dipole moment calculation done in   0.0 sec 

Maximum memory used throughout the entire PROP-calculation: 4.8 MB

--------------------------------
SUGGESTED CITATIONS FOR THIS RUN
--------------------------------

Below you find a list of papers that are relevant to this ORCA run
We neither can nor want to force you to cite these papers, but we appreciate if you do
You receive ORCA, which is the product of decades of hard work by many enthusiastic individuals, for free
The only thing we kindly ask in return is that you cite our papers,
We deeply appreciate it, if you show your appreciation for ORCA by not just citing the generic ORCA reference.

Please note that relegating all ORCA citations to the supporting information does *not* help us.
SI sections are not indexed - citations you put there will not count into any citation statistics
But we need these citations in order to attract the funding resources that allow us to do what we are doing

Therefore, if you are a happy ORCA user, please consider citing a few of the papers listed below in the main body of your paper

In addition to the list printed below, the program has created the file orca.bibtex that contains the list in bibtex format
You can import this file easily into all common literature databanks and citation aid programs


List of essential papers. We consider these as the minimum necessary citations

  1. Neese, F.
     Software update: the ORCA program system, version 6.0
     WIRES Comput. Molec. Sci. 2025 15(1), e70019
     doi.org/10.1002/wcms.7019

List of papers to cite with high priority. The work reported in these papers was absolutely
necessary for this run to complete.
Our perspective: the developers of density functionals and basis sets usually get cited in chemistry papers
Good! But without the algorithms to do something with them, the functionals or basis sets would not do anything.
Hence, in our opinion, the algorithm design and method developments papers are equally worthy of getting cited

  1. Neese, F.
     An improvement of the resolution of the identity approximation for the formation of the Coulomb matrix
     J. Comp. Chem. 2003 24(14), 1740-1747
     doi.org/10.1002/jcc.10318
  2. Neese, F.; Wennmohs, F.; Hansen, A.; Becker, U.
     Efficient, approximate and parallel Hartree-Fock and hybrid DFT calculations. A 'chain-of-spheres' algorithm for the Hartree-Fock exchange
     Chem. Phys. 2009 356(1-3), 98-109
     doi.org/10.1016/j.chemphys.2008.10.036
  3. Grimme, S.; Antony, J.; Ehrlich, S.; Krieg, H.
     A consistent and accurate ab initio parametrization of density functional dispersion correction (DFT-D) for the 94 elements H-Pu
     J. Chem. Phys. 2010 132 , 154104
     doi.org/10.1063/1.3382344
  4. Grimme, S.; Ehrlich, S.; Goerigk, L.
     Effect of the damping function in dispersion corrected density functional theory
     J. Comput. Chem. 2011 32(7), 1456-1465
     doi.org/10.1002/jcc.21759
  5. Helmich-Paris, B.; de Souza, B.; Neese, F.; Izsák, R.
     An improved chain of spheres for exchange algorithm
     J. Chem. Phys. 2021 155(10), 104109
     doi.org/10.1063/5.0058766
  6. Neese, F.
     The SHARK Integral Generation and Digestion System
     J. Comp. Chem. 2022 44(3), 381
     doi.org/10.1002/jcc.26942

List of suggested additional citations. These are papers that are important in the 'surrounding' of 
of this run, or papers that preceded the highly important papers. If you like your results we are grateful for a citation.

  1. Izsak, R.; Neese, F.
     An overlap fitted chain of spheres exchange method
     J. Chem. Phys. 2011 135 , 144105
     doi.org/10.1063/1.3646921
  2. Izsak, R.; Hansen, A.; Neese, F.
     The resolution of identity and chain of spheres approximations for the LPNO-CCSD singles Fock term
     Molec. Phys. 2012 110 , 2413-2417
     doi.org/10.1080/00268976.2012.687466
  3. Neese, F.
     The ORCA program system
     WIRES Comput. Molec. Sci. 2012 2(1), 73-78
     doi.org/10.1002/wcms.81
  4. Izsak, R.; Neese, F.; Klopper, W.
     Robust fitting techniques in the chain of spheres approximation to the Fock exchange: The role of the complementary space
     J. Chem. Phys. 2013 139 , 
     doi.org/10.1063/1.4819264
  5. Neese, F.
     Software update: the ORCA program system, version 4.0
     WIRES Comput. Molec. Sci. 2018 8(1), 1-6
     doi.org/10.1002/wcms.1327
  6. Neese, F.; Wennmohs, F.; Becker, U.; Riplinger, C.
     The ORCA quantum chemistry program package
     J. Chem. Phys. 2020 152(22), 224108
     doi.org/10.1063/5.0004608
  7. Neese, F.
     Software update: The ORCA program system—Version 5.0
     WIRES Comput. Molec. Sci. 2022 12(1), e1606
     doi.org/10.1002/wcms.1606

List of optional additional citations

  1. Neese, F.
     Approximate second-order SCF convergence for spin unrestricted wavefunctions
     Chem. Phys. Lett. 2000 325(1-3), 93-98
     doi.org/10.1016/s0009-2614(00)00662-x

Timings for individual modules:

Sum of individual times          ...        8.367 sec (=   0.139 min)
Startup calculation              ...        0.939 sec (=   0.016 min)  11.2 %
SCF iterations                   ...        4.663 sec (=   0.078 min)  55.7 %
Property calculations            ...        0.427 sec (=   0.007 min)   5.1 %
SCF Gradient evaluation          ...        2.338 sec (=   0.039 min)  27.9 %
                             ****ORCA TERMINATED NORMALLY****
TOTAL RUN TIME: 0 days 0 hours 0 minutes 8 seconds 959 msec
