
                                 *****************
                                 * O   R   C   A *
                                 *****************

                                            #,                                       
                                            ###                                      
                                            ####                                     
                                            #####                                    
                                            ######                                   
                                           ########,                                 
                                     ,,################,,,,,                         
                               ,,#################################,,                 
                          ,,##########################################,,             
                       ,#########################################, ''#####,          
                    ,#############################################,,   '####,        
                  ,##################################################,,,,####,       
                ,###########''''           ''''###############################       
              ,#####''   ,,,,##########,,,,          '''####'''          '####       
            ,##' ,,,,###########################,,,                        '##       
           ' ,,###''''                  '''############,,,                           
         ,,##''                                '''############,,,,        ,,,,,,###''
      ,#''                                            '''#######################'''  
     '                                                          ''''####''''         
             ,#######,   #######,   ,#######,      ##                                
            ,#'     '#,  ##    ##  ,#'     '#,    #''#        ,####,    ,#,          
            ##       ##  ##   ,#'  ##            #'  '#       #'       ,# #          
            ##       ##  #######   ##           ,######,      #####,      #          
            '#,     ,#'  ##    ##  '#,     ,#' ,#      #,     #,   #      #          
             '#######'   ##     ##  '#######'  #'      '#     '####' #    #          



                #########################################################
                #                        -***-                          #
                #          Department of theory and spectroscopy        #
                #                                                       #
                #                      Frank Neese                      #
                #                                                       #
                #     Directorship, Architecture, Infrastructure        #
                #                    SHARK, DRIVERS                     #
                #        Core code/Algorithms in most modules           #
                #                                                       #
                #        Max Planck Institute fuer Kohlenforschung      #
                #                Kaiser Wilhelm Platz 1                 #
                #                 D-45470 Muelheim/Ruhr                 #
                #                      Germany                          #
                #                                                       #
                #                  All rights reserved                  #
                #                        -***-                          #
                #########################################################


                         Program Version 6.1.0  -  RELEASE   -
                                (GIT: $679e74b$)
                          ($2025-06-10 18:02:51 +0200$)


 With contributions from (in alphabetic order):
[Max-Planck-Institut fuer Kohlenforschung]                               
  Daniel Aravena         : Magnetic Suceptibility                        
  Michael Atanasov       : Ab Initio Ligand Field Theory (pilot matlab implementation)
  Alexander A. Auer      : GIAO ZORA, VPT2 properties, NMR spectrum      
  Ute Becker             : All parallelization in ORCA, NUMFREQ, NUMCALC 
  Giovanni Bistoni       : ED, misc. LED, open-shell LED, HFLD           
  Dmytro Bykov           : pre 5.0 version of the SCF Hessian            
  Marcos Casanova-Páez   : Triplet and SCS-CIS(D). UHF-(DLPNO)-IP/EA/STEOM-CCSD. UHF-CVS-IP/STEOM-CCSD   
  Vijay G. Chilkuri      : MRCI spin determinant printing, contributions to CSF-ICE 
  Pauline Colinet        : FMM embedding                                 
  Dipayan Datta          : RHF DLPNO-CCSD density                        
  Achintya Kumar Dutta   : EOM-CC, STEOM-CC                              
  Nicolas Foglia         : Exact transition moments, OPA infrastructure, MCD improvements    
  Dmitry Ganyushin       : Spin-Orbit,Spin-Spin,Magnetic field MRCI      
  Miquel Garcia-Rates    : C-PCM and meta-GGA Hessian, CCSD/C-PCM, Gaussian charge scheme 
  Tiago L. C. Gouveia    : GS-ROHF, GS-ROCIS                             
  Yang Guo               : DLPNO-NEVPT2, F12-NEVPT2, CIM, IAO-localization        
  Andreas Hansen         : Spin unrestricted coupled pair/coupled cluster methods 
  Ingolf Harden          : AUTO-CI MPn and infrastructure                
  Benjamin Helmich-Paris : MC-RPA, TRAH-(SCF,CASSCF), AVAS, COSX integrals, SCF dyn. polar., MC-PDFT, srDFT 
  Lee Huntington         : MR-EOM, pCC                                   
  Robert Izsak           : Overlap fitted RIJCOSX, COSX-SCS-MP3, EOM     
  Riya Kayal             : Wick's Theorem for AUTO-CI, AUTO-CI UHF-CCSDT 
  Emily Kempfer          : AUTO-CI RHF CISDT and CCSDT, approximate NEVPT4
  Christian Kollmar      : KDIIS, OOCD, Brueckner-CCSD(T), CCSD density, CASPT2, CASPT2-K, improved NEVPT2 
  Axel Koslowski         : Symmetry handling                             
  Simone Kossmann        : meta-GGA functionals, TD-DFT gradient, OOMP2, (MP2 Hessian; deprecated post 5.0) 
  Lucas Lang             : DCDCAS, Hyperfine gauge corrections, ICE-SOC+SSC
  Marvin Lechner         : AUTO-CI (C++ implementation), FIC-MRCC        
  Spencer Leger          : CASSCF response                               
  Dagmar Lenk            : GEPOL surface, SMD, ORCA-2-JSON               
  Dimitrios Liakos       : Extrapolation schemes; Compound Job, Property file
  Dimitrios Manganas     : Further ROCIS development; embedding schemes. LFT, Crystal Embedding 
  Dimitrios Pantazis     : SARC Basis sets                               
  Anastasios Papadopoulos: AUTO-CI, single reference methods and gradients 
  Taras Petrenko         : pre 6.0 DFT Hessian and TD-DFT gradient,  ECA, NRVS 
  Petra Pikulova         : Analytic Raman intensities                    
  Peter Pinski           : DLPNO-MP2, DLPNO-MP2 Gradient                 
  Shashank Vittal Rao    : ES-AILFT, MagRelax                            
  Christoph Reimann      : Effective Core Potentials                     
  Marius Retegan         : Local ZFS, SOC                                
  Christoph Riplinger    : Optimizer, TS searches, QM/MM, DLPNO-CCSD(T), (RO)-DLPNO pert. Triples 
  Michael Roemelt        : Original ROCIS implementation, recursive CI coupling coefficients
  Masaaki Saitow         : Open-shell DLPNO-CCSD energy and density      
  Barbara Sandhoefer     : DKH picture change effects                    
  Yorick L. A. Schmerwitz: GMF and freeze-and-release deltaSCF, NEB S-IDPP initial path                    
  Kantharuban Sivalingam : CASSCF convergence/infrastructure, NEVPT2, NEVPT3, NEVPT4(SD), FIC-MRCI and CEPA variants
  Bernardo de Souza      : ESD, SOC TD-DFT                               
  Georgi L. Stoychev     : AutoAux, RI-MP2 NMR, DLPNO-MP2 response, X2C  
  Van Anh Tran           : RI-MP2 g-tensors                              
  Willem Van den Heuvel  : Paramagnetic NMR                              
  Zikuan Wang            : NOTCH, Electric field optimization            
  Frank Wennmohs         : Technical directorship and infrastructure     
  Hang Xu                : AUTO-CI-Response properties                   
                                                                         
[FACCTs GmbH]                                                            
  Markus Bursch, Nicolas Foglia, Miquel Garcia-Rates, Ingolf Harden, Hagen Neugebauer, Anastasios Papadopoulos, 
  Christoph Riplinger, Bernardo de Souza, Georgi L. Stoychev                                                    
                                                                 
  APM, various basis sets, CI-OPT, improved COSX, DLPNO-Multilevel,           
  DOCKER, DRACO, updates on ESD, Fragmentator, GOAT, IRC, LR-CPCM, L-BFGS, MBIS, meta-GGA TD-DFT gradient, ML-optimized integration grids, 
  MM, NACMEs, nearIR, NEB, NEB-TS, NL-DFT gradient (VV10), 2- and 3-layer-ONIOM, interface openCOSMO-RS, QMMM,   
  Crystal-QMMM, RESP, rigid body optimization, SF, symmetry and pop. for TD-DFT, various functionals, SOLVATOR                                   
                                                                         
[Other institutions]                                                     
  V. Asgeirsson          : NEB                                           
  Christoph Bannwarth    : sTDA-DFT, sTD-DFT, PBEh-3c, B97-3c, D3        
  Giovanni Bistoni       : ETS/NOCV, ADLD/ADEX, COVALED                  
  Martin Brehm           : Molecular dynamics                            
  Ronald Cardenas        : ETS/NOCV                                      
  Martina Colucci        : COVALED                                       
  Sebastian Ehlert       : rSCAN, r2SCAN, r2SCAN-3c, D4, dhf basis sets  
  Marvin Friede          : D4 for Fr, Ra, Ac-Lr                          
  Lars Goerigk           : TD-DFT with DH, B97 family of functionals     
  Stefan Grimme          : VdW corrections, initial TS optimization, DFT functionals, gCP, sTDA/sTD-DF 
  Waldemar Hujo          : DFT-NL                                        
  H. Jonsson             : NEB                                           
  Holger Kruse           : gCP                                           
  Marcel Mueller         : wB97X-3c, vDZP basis set                      
  Hagen Neugebauer       : wr2SCAN, Native XTB                           
  Gianluca Regni         : ADLD/ADEX                                     
  Tobias Risthaus        : pre 6.0 range-separated hybrid DFT and stability analysis
  Lukas Wittmann         : regularized MP2, r2SCAN double-hybrids, wr2SCAN        
                                                                         
We gratefully acknowledge several colleagues who have allowed us to      
interface, adapt or use parts of their codes:                            
  Ed Valeev, F. Pavosevic, A. Kumar             : LibInt (2-el integral package), F12 methods 
  Garnet Chan, S. Sharma, J. Yang, R. Olivares  : DMRG                   
  Ulf Ekstrom                                   : XCFun DFT Library      
  Mihaly Kallay                                 : mrcc  (arbitrary order and MRCC methods)
  Frank Weinhold                                : gennbo (NPA and NBO analysis)           
  Simon Mueller                                 : openCOSMO-RS                            
  Christopher J. Cramer and Donald G. Truhlar   : smd solvation model                     
  S Lehtola, MJT Oliveira, MAL Marques          : LibXC Library                           
  Liviu Ungur et al                             : ANISO software                          


 Your calculation uses the libint2 library for the computation of 2-el integrals
 For citations please refer to: http://libint.valeyev.net

 Your ORCA version has been built with support for libXC version: 7.0.0
 For citations please refer to: https://libxc.gitlab.io

 This ORCA versions uses:
   CBLAS   interface :  Fast vector & matrix operations
   LAPACKE interface :  Fast linear algebra routines
   SCALAPACK package :  Parallel linear algebra routines
   Shared memory     :  Shared parallel matrices
   BLAS/LAPACK       :  OpenBLAS 0.3.29  USE64BITINT DYNAMIC_ARCH NO_AFFINITY Zen SINGLE_THREADED
        Core in use  :  Zen
   Copyright (c) 2011-2014, The OpenBLAS Project


  ***********************************
  * Starting time: Wed Sep 10 13:35:17 2025
  * Host name:     wyk-Server
  * Process ID:    2289650
  * Working dir.:  /home/wyk/Documents/code/openQDC/MGMR/singlepointcalc/51/prod
  ***********************************

Your calculation utilizes the atom-pairwise dispersion correction
with the Becke-Johnson damping scheme (D3BJ)


Warning: RI is on but no J-basis has been assigned. Assigning Def2/J (nothing to worry about!)
================================================================================

----- Orbital basis set information -----
Your calculation utilizes the basis: def2-SVP
   F. Weigend and R. Ahlrichs, Phys. Chem. Chem. Phys. 7, 3297 (2005).

----- AuxJ basis set information -----
Your calculation utilizes the auxiliary basis: def2/J
   H-Rn: F. Weigend, Phys. Chem. Chem. Phys. 8, 1057 (2006).
   Fr-Lr: K. Eichkorn, F. Weigend, O. Treutler, R. Ahlrichs; Theor. Chem. Acc. 97, 119 (1997).

================================================================================
                                        WARNINGS
                       Please study these warnings very carefully!
================================================================================


================================================================================
                                       INPUT FILE
================================================================================
NAME = orca.inp
|  1> ! B3LYP def2-SVP d3 EnGrad 
|  2> %pal nprocs 6 end 
|  3> *xyz 0 1 
|  4> C   0.765101686317 0.38992754903893 -0.14897370246027
|  5> O   -0.54292334968083 0.65685634392411 0.25858145047369
|  6> C   -1.49247266212055 -0.27976946693011 -0.20344451249438
|  7> O   1.3005138463969 -0.77525493400034 0.41086721018227
|  8> H   1.34528079479887 1.28997876662516 0.12737771107328
|  9> H   0.81977853006174 0.24315162094627 -1.24568253675555
| 10> H   -2.47347406606028 0.01757713160299 0.19384903783135
| 11> H   -1.54448207751581 -0.28973991779624 -1.31086072206157
| 12> H   1.32837971513073 -0.65182380114026 1.37065013856298
| 13> H   -1.25804041732777 -1.30295029227051 0.1387149256482
| 14> *
| 15> 
| 16>                          ****END OF INPUT****
================================================================================

                     *******************************
                     * Energy+Gradient Calculation *
                     *******************************

---------------------------------
CARTESIAN COORDINATES (ANGSTROEM)
---------------------------------
  C      0.765102    0.389928   -0.148974
  O     -0.542923    0.656856    0.258581
  C     -1.492473   -0.279769   -0.203445
  O      1.300514   -0.775255    0.410867
  H      1.345281    1.289979    0.127378
  H      0.819779    0.243152   -1.245683
  H     -2.473474    0.017577    0.193849
  H     -1.544482   -0.289740   -1.310861
  H      1.328380   -0.651824    1.370650
  H     -1.258040   -1.302950    0.138715

----------------------------
CARTESIAN COORDINATES (A.U.)
----------------------------
  NO LB      ZA    FRAG     MASS         X           Y           Z
   0 C     6.0000    0    12.011    1.445833    0.736856   -0.281519
   1 O     8.0000    0    15.999   -1.025976    1.241279    0.488648
   2 C     6.0000    0    12.011   -2.820365   -0.528688   -0.384454
   3 O     8.0000    0    15.999    2.457615   -1.465020    0.776427
   4 H     1.0000    0     1.008    2.542212    2.437707    0.240709
   5 H     1.0000    0     1.008    1.549157    0.459490   -2.353999
   6 H     1.0000    0     1.008   -4.674189    0.033216    0.366322
   7 H     1.0000    0     1.008   -2.918648   -0.547529   -2.477168
   8 H     1.0000    0     1.008    2.510274   -1.231768    2.590153
   9 H     1.0000    0     1.008   -2.377352   -2.462219    0.262133

--------------------------------
INTERNAL COORDINATES (ANGSTROEM)
--------------------------------
 C      0   0   0     0.000000000000     0.00000000     0.00000000
 O      1   0   0     1.395808611171     0.00000000     0.00000000
 C      2   1   0     1.411516842538   114.07531664     0.00000000
 O      1   2   3     1.399191998052   113.64174956   293.07312732
 H      1   2   3     1.105924995630   105.24923450   169.98671087
 H      1   2   3     1.107837080771   111.13945874    51.86410135
 H      3   2   1     1.099372966432   107.60907135   178.80909277
 H      3   2   1     1.108681672254   111.37542904   297.91966616
 H      4   1   2     0.968088333165   107.54911345   297.83303853
 H      3   2   1     1.104051882772   111.75688183    58.98469627

---------------------------
INTERNAL COORDINATES (A.U.)
---------------------------
 C      0   0   0     0.000000000000     0.00000000     0.00000000
 O      1   0   0     2.637696010482     0.00000000     0.00000000
 C      2   1   0     2.667380265815   114.07531664     0.00000000
 O      1   2   3     2.644089685091   113.64174956   293.07312732
 H      1   2   3     2.089895366399   105.24923450   169.98671087
 H      1   2   3     2.093508683660   111.13945874    51.86410135
 H      3   2   1     2.077513825593   107.60907135   178.80909277
 H      3   2   1     2.095104730258   111.37542904   297.91966616
 H      4   1   2     1.829421823126   107.54911345   297.83303853
 H      3   2   1     2.086355696080   111.75688183    58.98469627

---------------------
BASIS SET INFORMATION
---------------------
There are 3 groups of distinct atoms

 Group   1 Type C   : 7s4p1d contracted to 3s2p1d pattern {511/31/1}
 Group   2 Type O   : 7s4p1d contracted to 3s2p1d pattern {511/31/1}
 Group   3 Type H   : 4s1p contracted to 2s1p pattern {31/1}

Atom   0C    basis set group =>   1
Atom   1O    basis set group =>   2
Atom   2C    basis set group =>   1
Atom   3O    basis set group =>   2
Atom   4H    basis set group =>   3
Atom   5H    basis set group =>   3
Atom   6H    basis set group =>   3
Atom   7H    basis set group =>   3
Atom   8H    basis set group =>   3
Atom   9H    basis set group =>   3
---------------------------------
AUXILIARY/J BASIS SET INFORMATION
---------------------------------
There are 3 groups of distinct atoms

 Group   1 Type C   : 12s5p4d2f1g contracted to 6s4p3d1f1g pattern {711111/2111/211/2/1}
 Group   2 Type O   : 12s5p4d2f1g contracted to 6s4p3d1f1g pattern {711111/2111/211/2/1}
 Group   3 Type H   : 5s2p1d contracted to 3s1p1d pattern {311/2/1}

Atom   0C    basis set group =>   1
Atom   1O    basis set group =>   2
Atom   2C    basis set group =>   1
Atom   3O    basis set group =>   2
Atom   4H    basis set group =>   3
Atom   5H    basis set group =>   3
Atom   6H    basis set group =>   3
Atom   7H    basis set group =>   3
Atom   8H    basis set group =>   3
Atom   9H    basis set group =>   3


           ************************************************************
           *        Program running with 6 parallel MPI-processes     *
           *              working on a common directory               *
           ************************************************************
------------------------------------------------------------------------------
                             ORCA STARTUP CALCULATIONS
                           -- RI-GTO INTEGRALS CHOSEN --
------------------------------------------------------------------------------
------------------------------------------------------------------------------
                   ___                                                        
                  /   \      - P O W E R E D   B Y -                         
                 /     \                                                     
                 |  |  |   _    _      __       _____    __    __             
                 |  |  |  | |  | |    /  \     |  _  \  |  |  /  |          
                  \  \/   | |  | |   /    \    | | | |  |  | /  /          
                 / \  \   | |__| |  /  /\  \   | |_| |  |  |/  /          
                |  |  |   |  __  | /  /__\  \  |    /   |      \           
                |  |  |   | |  | | |   __   |  |    \   |  |\   \          
                \     /   | |  | | |  |  |  |  | |\  \  |  | \   \       
                 \___/    |_|  |_| |__|  |__|  |_| \__\ |__|  \__/        
                                                                              
                      - O R C A' S   B I G   F R I E N D -                    
                                      &                                       
                       - I N T E G R A L  F E E D E R -                       
                                                                              
 v1 FN, 2020, v2 2021, v3 2022-2024                                           
------------------------------------------------------------------------------


----------------------
SHARK INTEGRAL PACKAGE
----------------------

Number of atoms                             ...     10
Number of basis functions                   ...     86
Number of shells                            ...     42
Maximum angular momentum                    ...      2
Integral batch strategy                     ... SHARK/LIBINT Hybrid
RI-J (if used) integral strategy            ... SPLIT-RIJ (Revised 2003 algorithm where possible)
Printlevel                                  ...      1
Contraction scheme used                     ... SEGMENTED contraction
Prescreening option                         ... SCHWARTZ
   Thresh                                   ... 2.500e-11
   Tcut                                     ... 2.500e-12
   Tpresel                                  ... 2.500e-12 
Coulomb Range Separation                    ... NOT USED
Exchange Range Separation                   ... NOT USED
Multipole approximations                    ... NOT USED
Finite Nucleus Model                        ... NOT USED
CABS basis                                  ... NOT available
Auxiliary Coulomb fitting basis             ... AVAILABLE
   # of basis functions in Aux-J            ...    262
   # of shells in Aux-J                     ...     90
   Maximum angular momentum in Aux-J        ...      4
Auxiliary J/K fitting basis                 ... NOT available
Auxiliary Correlation fitting basis         ... NOT available
Auxiliary 'external' fitting basis          ... NOT available

Checking pre-screening integrals            ... done (  0.0 sec) Dimension = 42
   => SHARK Basis and OBASIS are compatible. Storing Pre-screening
Shell pair information
Shell pair cut-off parameter TPreSel        ...   2.5e-12
Total number of shell pairs                 ...       903
Shell pairs after pre-screening             ...       898
Total number of primitive shell pairs       ...      3151
Primitive shell pairs kept                  ...      2594
          la=0 lb=0:    297 shell pairs
          la=1 lb=0:    334 shell pairs
          la=1 lb=1:    105 shell pairs
          la=2 lb=0:     96 shell pairs
          la=2 lb=1:     56 shell pairs
          la=2 lb=2:     10 shell pairs

Checking whether 4 symmetric matrices of dimension 86 fit in memory
:Max Core in MB      =   4096.00
 MB in use           =      4.42
 MB left             =   4091.58
 MB needed           =      0.11
 Data fit in memory  = YES
Calculating RI/J V-Matrix + Cholesky decomp.... done (  0.0 sec)
Calculating Nuclear repulsion               ... done (  0.0 sec) ENN=    135.664161484918 Eh

Diagonalization of the overlap matrix:
Smallest eigenvalue                        ... 6.465e-03
Time for diagonalization                   ...    0.001 sec
Threshold for overlap eigenvalues          ... 1.000e-07
Number of eigenvalues below threshold      ... 0
Time for construction of square roots      ...    0.000 sec
Total time needed                          ...    0.002 sec

-------------------
DFT GRID GENERATION
-------------------

General Integration Accuracy     IntAcc      ... 4.388
Radial Grid Type                 RadialGrid  ... OptM3 with GC (2021)
Angular Grid (max. ang.)         AngularGrid ... 4 (Lebedev-302)
Angular grid pruning method      GridPruning ... 4 (adaptive)
Weight generation scheme         WeightScheme... mBecke (2022)
Basis function cutoff            BFCut       ... 1.0000e-11
Integration weight cutoff        WCut        ... 1.0000e-14
Partially contracted basis set               ... off
Rotationally invariant grid construction     ... off
Angular grids for H and He will be reduced by one unit

Total number of grid points                  ...    43797
Total number of batches                      ...      691
Average number of points per batch           ...       63
Average number of grid points per atom       ...     4380

--------------------
COSX GRID GENERATION
--------------------

GRIDX 1
-------
General Integration Accuracy     IntAcc      ... 3.816
Radial Grid Type                 RadialGrid  ... OptM3 with GC (2021)
Angular Grid (max. ang.)         AngularGrid ... 1 (Lebedev-50)
Angular grid pruning method      GridPruning ... 4 (adaptive)
Weight generation scheme         WeightScheme... mBecke (2022)
Basis function cutoff            BFCut       ... 1.0000e-11
Integration weight cutoff        WCut        ... 1.0000e-14
Partially contracted basis set               ... on
Rotationally invariant grid construction     ... off
Angular grids for H and He will be reduced by one unit

Total number of grid points                  ...     5633
Total number of batches                      ...       50
Average number of points per batch           ...      112
Average number of grid points per atom       ...      563
UseSFitting                                  ... on

GRIDX 2
-------
General Integration Accuracy     IntAcc      ... 4.020
Radial Grid Type                 RadialGrid  ... OptM3 with GC (2021)
Angular Grid (max. ang.)         AngularGrid ... 2 (Lebedev-110)
Angular grid pruning method      GridPruning ... 4 (adaptive)
Weight generation scheme         WeightScheme... mBecke (2022)
Basis function cutoff            BFCut       ... 1.0000e-11
Integration weight cutoff        WCut        ... 1.0000e-14
Partially contracted basis set               ... on
Rotationally invariant grid construction     ... off
Angular grids for H and He will be reduced by one unit

Total number of grid points                  ...    12025
Total number of batches                      ...       99
Average number of points per batch           ...      121
Average number of grid points per atom       ...     1202
UseSFitting                                  ... on

GRIDX 3
-------
General Integration Accuracy     IntAcc      ... 4.338
Radial Grid Type                 RadialGrid  ... OptM3 with GC (2021)
Angular Grid (max. ang.)         AngularGrid ... 3 (Lebedev-194)
Angular grid pruning method      GridPruning ... 4 (adaptive)
Weight generation scheme         WeightScheme... mBecke (2022)
Basis function cutoff            BFCut       ... 1.0000e-11
Integration weight cutoff        WCut        ... 1.0000e-14
Partially contracted basis set               ... on
Rotationally invariant grid construction     ... off
Angular grids for H and He will be reduced by one unit

Total number of grid points                  ...    26483
Total number of batches                      ...      211
Average number of points per batch           ...      125
Average number of grid points per atom       ...     2648
UseSFitting                                  ... on
Grids setup in   0.5 sec
Initializing property integral containers    ... done (  0.0 sec)

SHARK setup successfully completed in   0.6 seconds

Maximum memory used throughout the entire STARTUP-calculation: 13.4 MB


           ************************************************************
           *        Program running with 6 parallel MPI-processes     *
           *              working on a common directory               *
           ************************************************************
-------------------------------------------------------------------------------
                                 ORCA GUESS
                   Start orbitals & Density for SCF / CASSCF
-------------------------------------------------------------------------------

------------
SCF SETTINGS
------------
Hamiltonian:
 Density Functional     Method          .... DFT(GTOs)
 Exchange Functional    Exchange        .... B88
   X-Alpha parameter    XAlpha          ....  0.666667
   Becke's b parameter  XBeta           ....  0.004200
 Correlation Functional Correlation     .... LYP
 LDA part of GGA corr.  LDAOpt          .... VWN-5
 Gradients option       PostSCFGGA      .... off
 Hybrid DFT is turned on
   Fraction HF Exchange ScalHFX         ....  0.200000
   Scaling of DF-GGA-X  ScalDFX         ....  0.720000
   Scaling of DF-GGA-C  ScalDFC         ....  0.810000
   Scaling of DF-LDA-C  ScalLDAC        ....  1.000000
   Perturbative correction              ....  0.000000
   NL short-range parameter             ....  4.800000
 RI-approximation to the Coulomb term is turned on
   Number of AuxJ basis functions       .... 262
   RIJ-COSX (HFX calculated with COS-X)).... on


General Settings:
 Integral files         IntName         .... orca
 Hartree-Fock type      HFTyp           .... RHF
 Total Charge           Charge          ....    0
 Multiplicity           Mult            ....    1
 Number of Electrons    NEL             ....   34
 Basis Dimension        Dim             ....   86
 Nuclear Repulsion      ENuc            ....    135.6641614849 Eh

Convergence Acceleration:
 AO-DIIS                CNVDIIS         .... on
   Start iteration      DIISMaxIt       ....    12
   Startup error        DIISStart       ....  0.200000
   # of expansion vecs  DIISMaxEq       ....     5
   Bias factor          DIISBfac        ....   1.050
   Max. coefficient     DIISMaxC        ....  10.000
 MO-DIIS                CNVKDIIS        .... off
 Trust-Rad. Augm. Hess. CNVTRAH         .... auto
   Auto Start mean grad. ratio tolernc. ....  1.125000
   Auto Start start iteration           ....    50
   Auto Start num. interpolation iter.  ....    10
   Max. Number of Micro iterations      ....    24
   Max. Number of Macro iterations      .... Maxiter - #DIIS iter
   Number of Davidson start vectors     ....     2
   Converg. threshold    (grad. norm)   ....   1.000e-05
   Grad. Scal. Fac. for Micro threshold ....   0.100
   Minimum threshold for Micro iter.    ....   1.000e-02
   NR start threshold (gradient norm)   ....   1.000e-04
   Initial trust radius                 ....   0.400
   Minimum AH scaling param. (alpha)    ....   1.000
   Maximum AH scaling param. (alpha)    .... 1000.000
   Quad. conv. algorithm                .... NR
   White noise on init. David. guess    .... on
   Maximum white noise                  ....   0.010
   Pseudo random numbers                .... off
   Inactive MOs                         .... canonical
   Orbital update algorithm             .... Taylor
   Preconditioner                       .... Diag
   Full preconditioner red. dimension   ....   250
 SOSCF                 CNVSOSCF           .... on
   Start iteration     SOSCFMaxIt         ....   150
   Startup grad/error  SOSCFStart         ....  0.003300
   Hessian update      SOSCFHessUp        .... L-BFGS
   Autom. constraints  SOSCFAutoConstrain .... off
 Level Shifting         CNVShift        .... on
   Level shift para.    LevelShift      ....    0.2500
   Turn off err/grad.   ShiftErr        ....    0.0010
 Zerner damping         CNVZerner       .... off
 Static damping         CNVDamp         .... on
   Fraction old density DampFac         ....    0.7000
   Max. Damping (<1)    DampMax         ....    0.9800
   Min. Damping (>=0)   DampMin         ....    0.0000
   Turn off err/grad.   DampErr         ....    0.1000

SCF Procedure:
 Maximum # iterations   MaxIter         ....   125
 SCF integral mode      SCFMode         .... Direct
   Integral package                     .... SHARK and LIBINT hybrid scheme
 Reset frequency        DirectResetFreq ....    20
 Integral Threshold     Thresh          ....  2.500e-11 Eh
 Primitive CutOff       TCut            ....  2.500e-12 Eh

Convergence Tolerance:
 Convergence Check Mode ConvCheckMode   .... Total+1el-Energy
 Convergence forced     ConvForced      .... 0
 Energy Change          TolE            ....  1.000e-08 Eh
 1-El. energy change                    ....  1.000e-05 Eh
 Orbital Gradient       TolG            ....  1.000e-05
 Orbital Rotation angle TolX            ....  1.000e-05
 DIIS Error             TolErr          ....  5.000e-07

------------------------------
INITIAL GUESS: MODEL POTENTIAL
------------------------------
Loading Hartree-Fock densities                     ... done
Calculating cut-offs                               ... done
Initializing the effective Hamiltonian             ... done
Setting up the integral package (SHARK)            ... done
Starting the Coulomb interaction                   ... done (   0.0 sec)
Making the grid                                    ... done (   0.1 sec)
Mapping shells                                     ... done
Starting the XC term evaluation                    ... done (   0.0 sec)
  promolecular density results
     # of electrons  =     33.998321033
     EX              =    -28.454638843
     EC              =     -1.149725426
     EX+EC           =    -29.604364269
Transforming the Hamiltonian                       ... done (   0.0 sec)
Diagonalizing the Hamiltonian                      ... done (   0.0 sec)
Back transforming the eigenvectors                 ... done (   0.0 sec)
Now organizing SCF variables                       ... done
                      ------------------
                      INITIAL GUESS DONE (   0.1 sec)
                      ------------------
             **** ENERGY FILE WAS UPDATED (orca.en.tmp) ****
Finished Guess after   0.2 sec
Maximum memory used throughout the entire GUESS-calculation: 6.7 MB


           ************************************************************
           *        Program running with 6 parallel MPI-processes     *
           *              working on a common directory               *
           ************************************************************

-------------------------------------------------------------------------------------------
                                      ORCA LEAN-SCF
                              memory conserving SCF solver
-------------------------------------------------------------------------------------------

----------------------------------------D-I-I-S--------------------------------------------
Iteration    Energy (Eh)           Delta-E    RMSDP     MaxDP     DIISErr   Damp  Time(sec)
-------------------------------------------------------------------------------------------
               ***  Starting incremental Fock matrix formation  ***
    1    -229.8297338952776272     0.00e+00  1.07e-02  7.02e-02  2.43e-01  0.700   0.3
    2    -229.8869337104547412    -5.72e-02  6.87e-03  4.04e-02  1.10e-01  0.700   0.2
                               ***Turning on AO-DIIS***
    3    -229.9088071567809379    -2.19e-02  2.53e-03  1.11e-02  3.36e-02  0.700   0.2
    4    -229.9222198977863627    -1.34e-02  4.09e-03  1.91e-02  1.75e-02  0.000   0.2
                              *** Initializing SOSCF ***
---------------------------------------S-O-S-C-F--------------------------------------
Iteration    Energy (Eh)           Delta-E    RMSDP     MaxDP     MaxGrad    Time(sec)
--------------------------------------------------------------------------------------
    5    -229.9520039813576204    -2.98e-02  6.84e-04  3.60e-03  3.23e-03     0.2
               *** Restarting incremental Fock matrix formation ***
    6    -229.9520257567767203    -2.18e-05  4.35e-04  2.15e-03  4.68e-04     0.3
    7    -229.9520285084940383    -2.75e-06  1.03e-04  6.71e-04  3.77e-04     0.4
    8    -229.9520311479494694    -2.64e-06  5.52e-05  2.61e-04  8.46e-05     0.3
    9    -229.9520312927925261    -1.45e-07  1.82e-05  1.62e-04  4.33e-05     0.3
   10    -229.9520313602546935    -6.75e-08  9.73e-06  7.18e-05  1.69e-05     0.3
   11    -229.9520313664248192    -6.17e-09  3.75e-06  1.69e-05  6.49e-06     0.3
                 **** Energy Check signals convergence ****

               *****************************************************
               *                     SUCCESS                       *
               *           SCF CONVERGED AFTER  11 CYCLES          *
               *****************************************************

Recomputing exchange energy using gridx3       ... done (    0.435 sec)
Old exchange energy                            :     -5.786554233 Eh
New exchange energy                            :     -5.786555642 Eh
Exchange energy change after final integration :     -0.000001409 Eh
Total energy after final integration           :   -229.952032775 Eh
             **** ENERGY FILE WAS UPDATED (orca.en.tmp) ****

----------------
TOTAL SCF ENERGY
----------------

Total Energy       :       -229.95203277521463 Eh           -6257.31293 eV

Components:
Nuclear Repulsion  :        135.66416148491822 Eh            3691.60951 eV
Electronic Energy  :       -365.61619285145628 Eh           -9948.92240 eV
One Electron Energy:       -582.36691676904195 Eh          -15847.00945 eV
Two Electron Energy:        216.75072391758567 Eh            5898.08705 eV

Virial components:
Potential Energy   :       -458.02287238072506 Eh          -12463.43599 eV
Kinetic Energy     :        228.07083960551040 Eh            6206.12306 eV
Virial Ratio       :          2.00824828449335

DFT components:
N(Alpha)           :       17.000004267658 electrons
N(Beta)            :       17.000004267658 electrons
N(Total)           :       34.000008535316 electrons
E(X)               :      -23.003111376520 Eh       
E(C)               :       -1.359587002965 Eh       
E(XC)              :      -24.362698379485 Eh       

---------------
SCF CONVERGENCE
---------------

  Last Energy change         ...    6.1701e-09  Tolerance :   1.0000e-08
  Last MAX-Density change    ...    1.6850e-05  Tolerance :   1.0000e-07
  Last RMS-Density change    ...    3.7480e-06  Tolerance :   5.0000e-09
  Last DIIS Error            ...    3.2342e-03  Tolerance :   5.0000e-07
  Last Orbital Gradient      ...    6.4918e-06  Tolerance :   1.0000e-05
  Last Orbital Rotation      ...    7.6695e-06  Tolerance :   1.0000e-05


----------------
ORBITAL ENERGIES
----------------

  NO   OCC          E(Eh)            E(eV) 
   0   2.0000     -19.133370      -520.6455 
   1   2.0000     -19.132769      -520.6291 
   2   2.0000     -10.274287      -279.5776 
   3   2.0000     -10.226533      -278.2781 
   4   2.0000      -1.052288       -28.6342 
   5   2.0000      -0.986327       -26.8393 
   6   2.0000      -0.708046       -19.2669 
   7   2.0000      -0.626826       -17.0568 
   8   2.0000      -0.527472       -14.3532 
   9   2.0000      -0.489390       -13.3170 
  10   2.0000      -0.476631       -12.9698 
  11   2.0000      -0.420157       -11.4331 
  12   2.0000      -0.405564       -11.0359 
  13   2.0000      -0.370902       -10.0928 
  14   2.0000      -0.306611        -8.3433 
  15   2.0000      -0.293174        -7.9777 
  16   2.0000      -0.269244        -7.3265 
  17   0.0000       0.058694         1.5971 
  18   0.0000       0.081547         2.2190 
  19   0.0000       0.106032         2.8853 
  20   0.0000       0.121223         3.2986 
  21   0.0000       0.140266         3.8168 
  22   0.0000       0.148616         4.0440 
  23   0.0000       0.160140         4.3576 
  24   0.0000       0.234112         6.3705 
  25   0.0000       0.254283         6.9194 
  26   0.0000       0.426859        11.6154 
  27   0.0000       0.458335        12.4719 
*Only the first 10 virtual orbitals were printed.

                    ********************************
                    * MULLIKEN POPULATION ANALYSIS *
                    ********************************

-----------------------
MULLIKEN ATOMIC CHARGES
-----------------------
   0 C :    0.338902
   1 O :   -0.384965
   2 C :    0.181829
   3 O :   -0.309896
   4 H :    0.000485
   5 H :   -0.015019
   6 H :    0.023176
   7 H :   -0.004166
   8 H :    0.162160
   9 H :    0.007494
Sum of atomic charges:   -0.0000000

--------------------------------
MULLIKEN REDUCED ORBITAL CHARGES
--------------------------------
  0 C s       :     2.952986  s :     2.952986
      pz      :     0.977142  p :     2.611961
      px      :     0.788061
      py      :     0.846758
      dz2     :     0.019576  d :     0.096152
      dxz     :     0.014900
      dyz     :     0.011573
      dx2y2   :     0.024443
      dxy     :     0.025659

  1 O s       :     3.765217  s :     3.765217
      pz      :     1.759520  p :     4.603665
      px      :     1.214719
      py      :     1.629426
      dz2     :     0.002133  d :     0.016082
      dxz     :     0.003515
      dyz     :     0.002415
      dx2y2   :     0.003544
      dxy     :     0.004475

  2 C s       :     2.995226  s :     2.995226
      pz      :     0.980179  p :     2.768883
      px      :     0.889223
      py      :     0.899482
      dz2     :     0.013201  d :     0.054062
      dxz     :     0.007819
      dyz     :     0.006694
      dx2y2   :     0.013506
      dxy     :     0.012841

  3 O s       :     3.730623  s :     3.730623
      pz      :     1.233466  p :     4.566075
      px      :     1.802626
      py      :     1.529984
      dz2     :     0.004819  d :     0.013198
      dxz     :     0.000562
      dyz     :     0.002424
      dx2y2   :     0.002641
      dxy     :     0.002752

  4 H s       :     0.980503  s :     0.980503
      pz      :     0.004043  p :     0.019012
      px      :     0.004667
      py      :     0.010302

  5 H s       :     0.995711  s :     0.995711
      pz      :     0.013943  p :     0.019309
      px      :     0.002377
      py      :     0.002989

  6 H s       :     0.955370  s :     0.955370
      pz      :     0.005894  p :     0.021454
      px      :     0.011227
      py      :     0.004333

  7 H s       :     0.982257  s :     0.982257
      pz      :     0.014238  p :     0.021909
      px      :     0.003675
      py      :     0.003997

  8 H s       :     0.770522  s :     0.770522
      pz      :     0.034452  p :     0.067318
      px      :     0.017900
      py      :     0.014966

  9 H s       :     0.970043  s :     0.970043
      pz      :     0.005675  p :     0.022463
      px      :     0.004338
      py      :     0.012450



                     *******************************
                     * LOEWDIN POPULATION ANALYSIS *
                     *******************************

----------------------
LOEWDIN ATOMIC CHARGES
----------------------
   0 C :    0.139533
   1 O :   -0.178603
   2 C :    0.066689
   3 O :   -0.134305
   4 H :    0.000873
   5 H :   -0.001334
   6 H :    0.020274
   7 H :    0.005296
   8 H :    0.076181
   9 H :    0.005397

-------------------------------
LOEWDIN REDUCED ORBITAL CHARGES
-------------------------------
  0 C s       :     2.840634  s :     2.840634
      pz      :     1.014426  p :     2.809103
      px      :     0.862989
      py      :     0.931689
      dz2     :     0.046867  d :     0.210730
      dxz     :     0.030052
      dyz     :     0.022198
      dx2y2   :     0.053660
      dxy     :     0.057954

  1 O s       :     3.468227  s :     3.468227
      pz      :     1.761963  p :     4.680868
      px      :     1.274307
      py      :     1.644597
      dz2     :     0.003529  d :     0.029508
      dxz     :     0.006694
      dyz     :     0.003060
      dx2y2   :     0.007469
      dxy     :     0.008758

  2 C s       :     2.848860  s :     2.848860
      pz      :     1.044108  p :     2.960443
      px      :     0.946163
      py      :     0.970171
      dz2     :     0.032896  d :     0.124009
      dxz     :     0.016986
      dyz     :     0.014571
      dx2y2   :     0.031953
      dxy     :     0.027603

  3 O s       :     3.452476  s :     3.452476
      pz      :     1.319707  p :     4.656901
      px      :     1.770328
      py      :     1.566865
      dz2     :     0.011266  d :     0.024928
      dxz     :     0.000896
      dyz     :     0.004534
      dx2y2   :     0.003881
      dxy     :     0.004350

  4 H s       :     0.938175  s :     0.938175
      pz      :     0.011891  p :     0.060952
      px      :     0.016276
      py      :     0.032786

  5 H s       :     0.940610  s :     0.940610
      pz      :     0.043129  p :     0.060724
      px      :     0.008357
      py      :     0.009238

  6 H s       :     0.917723  s :     0.917723
      pz      :     0.015313  p :     0.062003
      px      :     0.034255
      py      :     0.012435

  7 H s       :     0.932052  s :     0.932052
      pz      :     0.042353  p :     0.062652
      px      :     0.010026
      py      :     0.010273

  8 H s       :     0.746671  s :     0.746671
      pz      :     0.090237  p :     0.177148
      px      :     0.047886
      py      :     0.039025

  9 H s       :     0.929743  s :     0.929743
      pz      :     0.014168  p :     0.064860
      px      :     0.011949
      py      :     0.038743



                      *****************************
                      * MAYER POPULATION ANALYSIS *
                      *****************************

  NA   - Mulliken gross atomic population
  ZA   - Total nuclear charge
  QA   - Mulliken gross atomic charge
  VA   - Mayer's total valence
  BVA  - Mayer's bonded valence
  FA   - Mayer's free valence

  ATOM       NA         ZA         QA         VA         BVA        FA
  0 C      5.6611     6.0000     0.3389     4.0854     4.0854    -0.0000
  1 O      8.3850     8.0000    -0.3850     2.1001     2.1001    -0.0000
  2 C      5.8182     6.0000     0.1818     3.9468     3.9468     0.0000
  3 O      8.3099     8.0000    -0.3099     2.1090     2.1090    -0.0000
  4 H      0.9995     1.0000     0.0005     0.9765     0.9765    -0.0000
  5 H      1.0150     1.0000    -0.0150     0.9861     0.9861    -0.0000
  6 H      0.9768     1.0000     0.0232     0.9858     0.9858     0.0000
  7 H      1.0042     1.0000    -0.0042     0.9861     0.9861     0.0000
  8 H      0.8378     1.0000     0.1622     1.0231     1.0231    -0.0000
  9 H      0.9925     1.0000     0.0075     1.0030     1.0030     0.0000

  Mayer bond orders larger than 0.100000
B(  0-C ,  1-O ) :   1.0483 B(  0-C ,  3-O ) :   1.0792 B(  0-C ,  4-H ) :   0.9545 
B(  0-C ,  5-H ) :   0.9407 B(  1-O ,  2-C ) :   0.9845 B(  2-C ,  6-H ) :   0.9812 
B(  2-C ,  7-H ) :   0.9629 B(  2-C ,  9-H ) :   0.9655 B(  3-O ,  8-H ) :   0.9771 


-------
TIMINGS
-------

Total SCF time: 0 days 0 hours 0 min 3 sec 

Total time                  ....       3.938 sec
Sum of individual times     ....       3.629 sec  ( 92.2%)

SCF preparation             ....       0.164 sec  (  4.2%)
Fock matrix formation       ....       3.300 sec  ( 83.8%)
  Startup                   ....       0.004 sec  (  0.1% of F)
  Split-RI-J                ....       0.233 sec  (  7.1% of F)
  Chain of spheres X        ....       2.438 sec  ( 73.9% of F)
  XC integration            ....       0.792 sec  ( 24.0% of F)
    XC Preparation          ....       0.000 sec  (  0.0% of XC)
    Basis function eval.    ....       0.224 sec  ( 28.3% of XC)
    Density eval.           ....       0.109 sec  ( 13.7% of XC)
    XC-Functional eval.     ....       0.057 sec  (  7.2% of XC)
    XC-Potential eval.      ....       0.122 sec  ( 15.4% of XC)
Diagonalization             ....       0.000 sec  (  0.0%)
Density matrix formation    ....       0.021 sec  (  0.5%)
Total Energy calculation    ....       0.016 sec  (  0.4%)
Population analysis         ....       0.012 sec  (  0.3%)
Orbital Transformation      ....       0.010 sec  (  0.3%)
Orbital Orthonormalization  ....       0.000 sec  (  0.0%)
DIIS solution               ....       0.047 sec  (  1.2%)
SOSCF solution              ....       0.058 sec  (  1.5%)
Finished LeanSCF after   3.9 sec

Maximum memory used throughout the entire LEANSCF-calculation: 7.8 MB


-------------------------------------------------------------------------------
                          DFT DISPERSION CORRECTION                            
                                                                               
                              DFTD3 V3.1  Rev 1                                
                          USING Becke-Johnson damping                          
-------------------------------------------------------------------------------
The B3LYP functional is recognized
Active option DFTDOPT                   ...         4   

molecular C6(AA) [au] = 644.320605 


            DFT-D V3
 parameters
 s6 scaling factor         :     1.0000 
 a1 scaling factor         :     0.3981 
 s8 scaling factor         :     1.9889 
 a2 scaling factor         :     4.4211 
 ad hoc parameters k1-k3   :    16.0000     1.3333    -4.0000 

 Edisp/kcal,au: -5.362727194496  -0.008546048855 
 E6   /kcal   :  -2.700779796 
 E8   /kcal   :  -2.661947398 
 % E8         :  49.637941703 

-------------------------   ----------------
Dispersion correction           -0.008546049
-------------------------   ----------------


-------------------------   --------------------
FINAL SINGLE POINT ENERGY      -229.960578824070
-------------------------   --------------------



           ************************************************************
           *        Program running with 6 parallel MPI-processes     *
           *              working on a common directory               *
           ************************************************************
------------------------------------------------------------------------------
                         ORCA SCF GRADIENT CALCULATION
------------------------------------------------------------------------------

Nuc. rep. gradient        (SHARK) ... done (  0.0 sec)
HCore & Overlap gradient  (SHARK) ... done (  0.0 sec)
Split-RIJ-J gradient      (SHARK) ... done (  0.1 sec)
done (  1.8 sec)
XC gradient                       ... done (  0.4 sec)
Dispersion correction             ... done (  0.0 sec)

-------------------
DISPERSION GRADIENT
-------------------

   1   C   :    0.000204253    0.000080842   -0.000003118
   2   O   :   -0.000061987    0.000078053    0.000006002
   3   C   :   -0.000318535   -0.000037054   -0.000052118
   4   O   :    0.000269212   -0.000073475    0.000084178
   5   H   :    0.000129825    0.000107699    0.000004850
   6   H   :    0.000127019    0.000054935   -0.000106156
   7   H   :   -0.000175122   -0.000007122    0.000014914
   8   H   :   -0.000166659   -0.000028948   -0.000090523
   9   H   :    0.000171894   -0.000064288    0.000138033
  10   H   :   -0.000179901   -0.000110642    0.000003938

Difference to translation invariance:
           :   -0.0000000000   -0.0000000000    0.0000000000

Difference to rotation invariance:
           :    0.0000000000    0.0000000000   -0.0000000000

Norm of the Dispersion gradient    ...    0.0006875683
RMS gradient                       ...    0.0001255322
MAX gradient                       ...    0.0003185350

------------------
CARTESIAN GRADIENT
------------------

   1   C   :   -0.000018252   -0.000071246    0.000076433
   2   O   :    0.000007378   -0.000142768   -0.000016890
   3   C   :    0.000112001    0.000125532   -0.000086967
   4   O   :    0.000094120    0.000154153    0.000016763
   5   H   :    0.000030142   -0.000026478    0.000008558
   6   H   :   -0.000062729   -0.000010540   -0.000039149
   7   H   :   -0.000005481   -0.000049363    0.000052082
   8   H   :    0.000013689   -0.000010979   -0.000029879
   9   H   :   -0.000018827   -0.000013012   -0.000021904
  10   H   :   -0.000152041    0.000044702    0.000040952

Difference to translation invariance:
           :    0.0000000000   -0.0000000000   -0.0000000000

Difference to rotation invariance:
           :   -0.0000234043    0.0000022945   -0.0001246680

Norm of the Cartesian gradient     ...    0.0003770660
RMS gradient                       ...    0.0000688425
MAX gradient                       ...    0.0001541527

-------
TIMINGS
-------

Total SCF gradient time     ....        2.367 sec

Densities                   ....       0.000 sec  (  0.0%)
One electron gradient       ....       0.020 sec  (  0.8%)
RI-J Coulomb gradient       ....       0.147 sec  (  6.2%)
COSX gradient               ....       1.791 sec  ( 75.7%)
XC gradient                 ....       0.358 sec  ( 15.1%)

Maximum memory used throughout the entire SCFGRAD-calculation: 26.6 MB


           ************************************************************
           *        Program running with 6 parallel MPI-processes     *
           *              working on a common directory               *
           ************************************************************

------------------------------------------------------------------------------
                              ORCA PROPERTY CALCULATIONS
------------------------------------------------------------------------------

GBWName                                 ... orca.gbw
Number of atoms                         ...     10
Number of basis functions               ...     86
Max core memory                         ...   4096 MB

Electric properties:
Dipole moment                           ... YES
Quadrupole moment                       ...  NO
Static polarizability (Dipole/Dipole)   ...  NO
Static polarizability (Dipole/Quad.)    ...  NO
Static polarizability (Quad./Quad.)     ...  NO
Static polarizability (Velocity)        ...  NO
Static hyperpolarizability              ...  NO

Atomic electric properties:
Dipole moment                           ...  NO
Quadrupole moment                       ...  NO
Static polarizability                   ...  NO

Choice of electric origin               ... Center of mass
Position of electric origin             ...     0.048331    -0.038682     0.174939

General magnetic properties:
Magnetizability                         ...  NO

EPR properties:
g-Tensor (aka g-matrix)                 ...  NO
Zero-Field splitting spin-orbit         ...  NO
Zero-field splitting spin-spin          ...  NO
Hyperfine couplings                     ...  NO (   0 nuclei)
Quadrupole couplings                    ...  NO (   0 nuclei)
Contact density                         ...  NO (   0 nuclei)

NMR properties:
Chemical shifts                         ...  NO (   0 nuclei)
Spin-rotation constants                 ...  NO (   0 nuclei)
Spin-spin couplings                     ...  NO (   0 nuclei,    0 pairs)

Choice of magnetic origin               ... GIAO
Position of magnetic origin             ...     0.000000     0.000000     0.000000

Properties with geometric perturbations:
SCF Hessian                             ...  NO
IR spectrum                             ...  NO
VCD spectrum                            ...  NO
X-ray spectroscopy properties:
SCF XES/XAS/RIXS spectra                ...  NO

SCF SOC stabilization energy            ...  NO
Diagonal Born-Oppenheimer correction    ...  NO

-------------
DIPOLE MOMENT
-------------

Method             : SCF
Type of density    : Electron Density
Multiplicity       :   1
Irrep              :   0
Energy             :  -229.9520327752146329 Eh
Basis              : AO
                                X                 Y                 Z
Electronic contribution:      1.720464215       0.554890615       1.319078137
Nuclear contribution   :     -1.805871618      -0.536833871      -1.195009954
                        -----------------------------------------
Total Dipole Moment    :     -0.085407403       0.018056744       0.124068183
                        -----------------------------------------
Magnitude (a.u.)       :      0.151701630
Magnitude (Debye)      :      0.385594900



--------------------
Rotational spectrum 
--------------------
 
Rotational constants in cm-1:             0.579892             0.185532             0.160585 
Rotational constants in MHz :         17384.716515          5562.111612          4814.220237 

Dipole components along the rotational axes: 
x,y,z [a.u.] :    -0.067781    -0.008690    -0.135439 
x,y,z [Debye]:    -0.172285    -0.022089    -0.344258 

 

Dipole moment calculation done in   0.0 sec 

Maximum memory used throughout the entire PROP-calculation: 4.7 MB

--------------------------------
SUGGESTED CITATIONS FOR THIS RUN
--------------------------------

Below you find a list of papers that are relevant to this ORCA run
We neither can nor want to force you to cite these papers, but we appreciate if you do
You receive ORCA, which is the product of decades of hard work by many enthusiastic individuals, for free
The only thing we kindly ask in return is that you cite our papers,
We deeply appreciate it, if you show your appreciation for ORCA by not just citing the generic ORCA reference.

Please note that relegating all ORCA citations to the supporting information does *not* help us.
SI sections are not indexed - citations you put there will not count into any citation statistics
But we need these citations in order to attract the funding resources that allow us to do what we are doing

Therefore, if you are a happy ORCA user, please consider citing a few of the papers listed below in the main body of your paper

In addition to the list printed below, the program has created the file orca.bibtex that contains the list in bibtex format
You can import this file easily into all common literature databanks and citation aid programs


List of essential papers. We consider these as the minimum necessary citations

  1. Neese, F.
     Software update: the ORCA program system, version 6.0
     WIRES Comput. Molec. Sci. 2025 15(1), e70019
     doi.org/10.1002/wcms.7019

List of papers to cite with high priority. The work reported in these papers was absolutely
necessary for this run to complete.
Our perspective: the developers of density functionals and basis sets usually get cited in chemistry papers
Good! But without the algorithms to do something with them, the functionals or basis sets would not do anything.
Hence, in our opinion, the algorithm design and method developments papers are equally worthy of getting cited

  1. Neese, F.
     An improvement of the resolution of the identity approximation for the formation of the Coulomb matrix
     J. Comp. Chem. 2003 24(14), 1740-1747
     doi.org/10.1002/jcc.10318
  2. Neese, F.; Wennmohs, F.; Hansen, A.; Becker, U.
     Efficient, approximate and parallel Hartree-Fock and hybrid DFT calculations. A 'chain-of-spheres' algorithm for the Hartree-Fock exchange
     Chem. Phys. 2009 356(1-3), 98-109
     doi.org/10.1016/j.chemphys.2008.10.036
  3. Grimme, S.; Antony, J.; Ehrlich, S.; Krieg, H.
     A consistent and accurate ab initio parametrization of density functional dispersion correction (DFT-D) for the 94 elements H-Pu
     J. Chem. Phys. 2010 132 , 154104
     doi.org/10.1063/1.3382344
  4. Grimme, S.; Ehrlich, S.; Goerigk, L.
     Effect of the damping function in dispersion corrected density functional theory
     J. Comput. Chem. 2011 32(7), 1456-1465
     doi.org/10.1002/jcc.21759
  5. Helmich-Paris, B.; de Souza, B.; Neese, F.; Izsák, R.
     An improved chain of spheres for exchange algorithm
     J. Chem. Phys. 2021 155(10), 104109
     doi.org/10.1063/5.0058766
  6. Neese, F.
     The SHARK Integral Generation and Digestion System
     J. Comp. Chem. 2022 44(3), 381
     doi.org/10.1002/jcc.26942

List of suggested additional citations. These are papers that are important in the 'surrounding' of 
of this run, or papers that preceded the highly important papers. If you like your results we are grateful for a citation.

  1. Izsak, R.; Neese, F.
     An overlap fitted chain of spheres exchange method
     J. Chem. Phys. 2011 135 , 144105
     doi.org/10.1063/1.3646921
  2. Izsak, R.; Hansen, A.; Neese, F.
     The resolution of identity and chain of spheres approximations for the LPNO-CCSD singles Fock term
     Molec. Phys. 2012 110 , 2413-2417
     doi.org/10.1080/00268976.2012.687466
  3. Neese, F.
     The ORCA program system
     WIRES Comput. Molec. Sci. 2012 2(1), 73-78
     doi.org/10.1002/wcms.81
  4. Izsak, R.; Neese, F.; Klopper, W.
     Robust fitting techniques in the chain of spheres approximation to the Fock exchange: The role of the complementary space
     J. Chem. Phys. 2013 139 , 
     doi.org/10.1063/1.4819264
  5. Neese, F.
     Software update: the ORCA program system, version 4.0
     WIRES Comput. Molec. Sci. 2018 8(1), 1-6
     doi.org/10.1002/wcms.1327
  6. Neese, F.; Wennmohs, F.; Becker, U.; Riplinger, C.
     The ORCA quantum chemistry program package
     J. Chem. Phys. 2020 152(22), 224108
     doi.org/10.1063/5.0004608
  7. Neese, F.
     Software update: The ORCA program system—Version 5.0
     WIRES Comput. Molec. Sci. 2022 12(1), e1606
     doi.org/10.1002/wcms.1606

List of optional additional citations

  1. Neese, F.
     Approximate second-order SCF convergence for spin unrestricted wavefunctions
     Chem. Phys. Lett. 2000 325(1-3), 93-98
     doi.org/10.1016/s0009-2614(00)00662-x

Timings for individual modules:

Sum of individual times          ...        9.151 sec (=   0.153 min)
Startup calculation              ...        0.948 sec (=   0.016 min)  10.4 %
SCF iterations                   ...        4.878 sec (=   0.081 min)  53.3 %
Property calculations            ...        0.489 sec (=   0.008 min)   5.3 %
SCF Gradient evaluation          ...        2.837 sec (=   0.047 min)  31.0 %
                             ****ORCA TERMINATED NORMALLY****
TOTAL RUN TIME: 0 days 0 hours 0 minutes 9 seconds 727 msec
