
                                 *****************
                                 * O   R   C   A *
                                 *****************

                                            #,                                       
                                            ###                                      
                                            ####                                     
                                            #####                                    
                                            ######                                   
                                           ########,                                 
                                     ,,################,,,,,                         
                               ,,#################################,,                 
                          ,,##########################################,,             
                       ,#########################################, ''#####,          
                    ,#############################################,,   '####,        
                  ,##################################################,,,,####,       
                ,###########''''           ''''###############################       
              ,#####''   ,,,,##########,,,,          '''####'''          '####       
            ,##' ,,,,###########################,,,                        '##       
           ' ,,###''''                  '''############,,,                           
         ,,##''                                '''############,,,,        ,,,,,,###''
      ,#''                                            '''#######################'''  
     '                                                          ''''####''''         
             ,#######,   #######,   ,#######,      ##                                
            ,#'     '#,  ##    ##  ,#'     '#,    #''#        ,####,    ,#,          
            ##       ##  ##   ,#'  ##            #'  '#       #'       ,# #          
            ##       ##  #######   ##           ,######,      #####,      #          
            '#,     ,#'  ##    ##  '#,     ,#' ,#      #,     #,   #      #          
             '#######'   ##     ##  '#######'  #'      '#     '####' #    #          



                #########################################################
                #                        -***-                          #
                #          Department of theory and spectroscopy        #
                #                                                       #
                #                      Frank Neese                      #
                #                                                       #
                #     Directorship, Architecture, Infrastructure        #
                #                    SHARK, DRIVERS                     #
                #        Core code/Algorithms in most modules           #
                #                                                       #
                #        Max Planck Institute fuer Kohlenforschung      #
                #                Kaiser Wilhelm Platz 1                 #
                #                 D-45470 Muelheim/Ruhr                 #
                #                      Germany                          #
                #                                                       #
                #                  All rights reserved                  #
                #                        -***-                          #
                #########################################################


                         Program Version 6.1.0  -  RELEASE   -
                                (GIT: $679e74b$)
                          ($2025-06-10 18:02:51 +0200$)


 With contributions from (in alphabetic order):
[Max-Planck-Institut fuer Kohlenforschung]                               
  Daniel Aravena         : Magnetic Suceptibility                        
  Michael Atanasov       : Ab Initio Ligand Field Theory (pilot matlab implementation)
  Alexander A. Auer      : GIAO ZORA, VPT2 properties, NMR spectrum      
  Ute Becker             : All parallelization in ORCA, NUMFREQ, NUMCALC 
  Giovanni Bistoni       : ED, misc. LED, open-shell LED, HFLD           
  Dmytro Bykov           : pre 5.0 version of the SCF Hessian            
  Marcos Casanova-Páez   : Triplet and SCS-CIS(D). UHF-(DLPNO)-IP/EA/STEOM-CCSD. UHF-CVS-IP/STEOM-CCSD   
  Vijay G. Chilkuri      : MRCI spin determinant printing, contributions to CSF-ICE 
  Pauline Colinet        : FMM embedding                                 
  Dipayan Datta          : RHF DLPNO-CCSD density                        
  Achintya Kumar Dutta   : EOM-CC, STEOM-CC                              
  Nicolas Foglia         : Exact transition moments, OPA infrastructure, MCD improvements    
  Dmitry Ganyushin       : Spin-Orbit,Spin-Spin,Magnetic field MRCI      
  Miquel Garcia-Rates    : C-PCM and meta-GGA Hessian, CCSD/C-PCM, Gaussian charge scheme 
  Tiago L. C. Gouveia    : GS-ROHF, GS-ROCIS                             
  Yang Guo               : DLPNO-NEVPT2, F12-NEVPT2, CIM, IAO-localization        
  Andreas Hansen         : Spin unrestricted coupled pair/coupled cluster methods 
  Ingolf Harden          : AUTO-CI MPn and infrastructure                
  Benjamin Helmich-Paris : MC-RPA, TRAH-(SCF,CASSCF), AVAS, COSX integrals, SCF dyn. polar., MC-PDFT, srDFT 
  Lee Huntington         : MR-EOM, pCC                                   
  Robert Izsak           : Overlap fitted RIJCOSX, COSX-SCS-MP3, EOM     
  Riya Kayal             : Wick's Theorem for AUTO-CI, AUTO-CI UHF-CCSDT 
  Emily Kempfer          : AUTO-CI RHF CISDT and CCSDT, approximate NEVPT4
  Christian Kollmar      : KDIIS, OOCD, Brueckner-CCSD(T), CCSD density, CASPT2, CASPT2-K, improved NEVPT2 
  Axel Koslowski         : Symmetry handling                             
  Simone Kossmann        : meta-GGA functionals, TD-DFT gradient, OOMP2, (MP2 Hessian; deprecated post 5.0) 
  Lucas Lang             : DCDCAS, Hyperfine gauge corrections, ICE-SOC+SSC
  Marvin Lechner         : AUTO-CI (C++ implementation), FIC-MRCC        
  Spencer Leger          : CASSCF response                               
  Dagmar Lenk            : GEPOL surface, SMD, ORCA-2-JSON               
  Dimitrios Liakos       : Extrapolation schemes; Compound Job, Property file
  Dimitrios Manganas     : Further ROCIS development; embedding schemes. LFT, Crystal Embedding 
  Dimitrios Pantazis     : SARC Basis sets                               
  Anastasios Papadopoulos: AUTO-CI, single reference methods and gradients 
  Taras Petrenko         : pre 6.0 DFT Hessian and TD-DFT gradient,  ECA, NRVS 
  Petra Pikulova         : Analytic Raman intensities                    
  Peter Pinski           : DLPNO-MP2, DLPNO-MP2 Gradient                 
  Shashank Vittal Rao    : ES-AILFT, MagRelax                            
  Christoph Reimann      : Effective Core Potentials                     
  Marius Retegan         : Local ZFS, SOC                                
  Christoph Riplinger    : Optimizer, TS searches, QM/MM, DLPNO-CCSD(T), (RO)-DLPNO pert. Triples 
  Michael Roemelt        : Original ROCIS implementation, recursive CI coupling coefficients
  Masaaki Saitow         : Open-shell DLPNO-CCSD energy and density      
  Barbara Sandhoefer     : DKH picture change effects                    
  Yorick L. A. Schmerwitz: GMF and freeze-and-release deltaSCF, NEB S-IDPP initial path                    
  Kantharuban Sivalingam : CASSCF convergence/infrastructure, NEVPT2, NEVPT3, NEVPT4(SD), FIC-MRCI and CEPA variants
  Bernardo de Souza      : ESD, SOC TD-DFT                               
  Georgi L. Stoychev     : AutoAux, RI-MP2 NMR, DLPNO-MP2 response, X2C  
  Van Anh Tran           : RI-MP2 g-tensors                              
  Willem Van den Heuvel  : Paramagnetic NMR                              
  Zikuan Wang            : NOTCH, Electric field optimization            
  Frank Wennmohs         : Technical directorship and infrastructure     
  Hang Xu                : AUTO-CI-Response properties                   
                                                                         
[FACCTs GmbH]                                                            
  Markus Bursch, Nicolas Foglia, Miquel Garcia-Rates, Ingolf Harden, Hagen Neugebauer, Anastasios Papadopoulos, 
  Christoph Riplinger, Bernardo de Souza, Georgi L. Stoychev                                                    
                                                                 
  APM, various basis sets, CI-OPT, improved COSX, DLPNO-Multilevel,           
  DOCKER, DRACO, updates on ESD, Fragmentator, GOAT, IRC, LR-CPCM, L-BFGS, MBIS, meta-GGA TD-DFT gradient, ML-optimized integration grids, 
  MM, NACMEs, nearIR, NEB, NEB-TS, NL-DFT gradient (VV10), 2- and 3-layer-ONIOM, interface openCOSMO-RS, QMMM,   
  Crystal-QMMM, RESP, rigid body optimization, SF, symmetry and pop. for TD-DFT, various functionals, SOLVATOR                                   
                                                                         
[Other institutions]                                                     
  V. Asgeirsson          : NEB                                           
  Christoph Bannwarth    : sTDA-DFT, sTD-DFT, PBEh-3c, B97-3c, D3        
  Giovanni Bistoni       : ETS/NOCV, ADLD/ADEX, COVALED                  
  Martin Brehm           : Molecular dynamics                            
  Ronald Cardenas        : ETS/NOCV                                      
  Martina Colucci        : COVALED                                       
  Sebastian Ehlert       : rSCAN, r2SCAN, r2SCAN-3c, D4, dhf basis sets  
  Marvin Friede          : D4 for Fr, Ra, Ac-Lr                          
  Lars Goerigk           : TD-DFT with DH, B97 family of functionals     
  Stefan Grimme          : VdW corrections, initial TS optimization, DFT functionals, gCP, sTDA/sTD-DF 
  Waldemar Hujo          : DFT-NL                                        
  H. Jonsson             : NEB                                           
  Holger Kruse           : gCP                                           
  Marcel Mueller         : wB97X-3c, vDZP basis set                      
  Hagen Neugebauer       : wr2SCAN, Native XTB                           
  Gianluca Regni         : ADLD/ADEX                                     
  Tobias Risthaus        : pre 6.0 range-separated hybrid DFT and stability analysis
  Lukas Wittmann         : regularized MP2, r2SCAN double-hybrids, wr2SCAN        
                                                                         
We gratefully acknowledge several colleagues who have allowed us to      
interface, adapt or use parts of their codes:                            
  Ed Valeev, F. Pavosevic, A. Kumar             : LibInt (2-el integral package), F12 methods 
  Garnet Chan, S. Sharma, J. Yang, R. Olivares  : DMRG                   
  Ulf Ekstrom                                   : XCFun DFT Library      
  Mihaly Kallay                                 : mrcc  (arbitrary order and MRCC methods)
  Frank Weinhold                                : gennbo (NPA and NBO analysis)           
  Simon Mueller                                 : openCOSMO-RS                            
  Christopher J. Cramer and Donald G. Truhlar   : smd solvation model                     
  S Lehtola, MJT Oliveira, MAL Marques          : LibXC Library                           
  Liviu Ungur et al                             : ANISO software                          


 Your calculation uses the libint2 library for the computation of 2-el integrals
 For citations please refer to: http://libint.valeyev.net

 Your ORCA version has been built with support for libXC version: 7.0.0
 For citations please refer to: https://libxc.gitlab.io

 This ORCA versions uses:
   CBLAS   interface :  Fast vector & matrix operations
   LAPACKE interface :  Fast linear algebra routines
   SCALAPACK package :  Parallel linear algebra routines
   Shared memory     :  Shared parallel matrices
   BLAS/LAPACK       :  OpenBLAS 0.3.29  USE64BITINT DYNAMIC_ARCH NO_AFFINITY Zen SINGLE_THREADED
        Core in use  :  Zen
   Copyright (c) 2011-2014, The OpenBLAS Project


  ***********************************
  * Starting time: Wed Sep 10 13:35:16 2025
  * Host name:     wyk-Server
  * Process ID:    2289603
  * Working dir.:  /home/wyk/Documents/code/openQDC/MGMR/singlepointcalc/52/prod
  ***********************************

Your calculation utilizes the atom-pairwise dispersion correction
with the Becke-Johnson damping scheme (D3BJ)


Warning: RI is on but no J-basis has been assigned. Assigning Def2/J (nothing to worry about!)
================================================================================

----- Orbital basis set information -----
Your calculation utilizes the basis: def2-SVP
   F. Weigend and R. Ahlrichs, Phys. Chem. Chem. Phys. 7, 3297 (2005).

----- AuxJ basis set information -----
Your calculation utilizes the auxiliary basis: def2/J
   H-Rn: F. Weigend, Phys. Chem. Chem. Phys. 8, 1057 (2006).
   Fr-Lr: K. Eichkorn, F. Weigend, O. Treutler, R. Ahlrichs; Theor. Chem. Acc. 97, 119 (1997).

================================================================================
                                        WARNINGS
                       Please study these warnings very carefully!
================================================================================


================================================================================
                                       INPUT FILE
================================================================================
NAME = orca.inp
|  1> ! B3LYP def2-SVP d3 EnGrad 
|  2> %pal nprocs 6 end 
|  3> *xyz 0 1 
|  4> C   -0.09069811082582 -0.93304231276448 0.11011672489308
|  5> O   -1.28532576040033 -0.43482035127552 -0.41982207688599
|  6> C   1.1414404949638 1.07472471869136 0.18406160827967
|  7> O   1.05430047116647 -0.24204044363031 -0.29630786270483
|  8> H   -0.13598427948658 -0.95826149797141 1.22345141961349
|  9> H   0.02947224756367 -1.95733777592191 -0.27175664848431
| 10> H   1.05856548902215 1.11497728758676 1.29129789038649
| 11> H   2.12379739542611 1.47481036848596 -0.10529320206375
| 12> H   -1.59390475906751 0.29795778956619 0.12782023447765
| 13> H   0.36190481163805 1.73162321723338 -0.2477420875115
| 14> *
| 15> 
| 16>                          ****END OF INPUT****
================================================================================

                     *******************************
                     * Energy+Gradient Calculation *
                     *******************************

---------------------------------
CARTESIAN COORDINATES (ANGSTROEM)
---------------------------------
  C     -0.090698   -0.933042    0.110117
  O     -1.285326   -0.434820   -0.419822
  C      1.141440    1.074725    0.184062
  O      1.054300   -0.242040   -0.296308
  H     -0.135984   -0.958261    1.223451
  H      0.029472   -1.957338   -0.271757
  H      1.058565    1.114977    1.291298
  H      2.123797    1.474810   -0.105293
  H     -1.593905    0.297958    0.127820
  H      0.361905    1.731623   -0.247742

----------------------------
CARTESIAN COORDINATES (A.U.)
----------------------------
  NO LB      ZA    FRAG     MASS         X           Y           Z
   0 C     6.0000    0    12.011   -0.171395   -1.763194    0.208090
   1 O     8.0000    0    15.999   -2.428914   -0.821691   -0.793349
   2 C     6.0000    0    12.011    2.157010    2.030935    0.347826
   3 O     8.0000    0    15.999    1.992339   -0.457390   -0.559941
   4 H     1.0000    0     1.008   -0.256973   -1.810852    2.311988
   5 H     1.0000    0     1.008    0.055694   -3.698832   -0.513546
   6 H     1.0000    0     1.008    2.000399    2.107002    2.440199
   7 H     1.0000    0     1.008    4.013395    2.786988   -0.198975
   8 H     1.0000    0     1.008   -3.012043    0.563059    0.241545
   9 H     1.0000    0     1.008    0.683901    3.272294   -0.468165

--------------------------------
INTERNAL COORDINATES (ANGSTROEM)
--------------------------------
 C      0   0   0     0.000000000000     0.00000000     0.00000000
 O      1   0   0     1.398640582018     0.00000000     0.00000000
 C      1   2   0     2.356854225924    98.91466257     0.00000000
 O      1   2   3     1.397743281621   114.41930874   329.64360954
 H      1   2   3     1.114540706678   110.59993742    93.94984377
 H      1   2   3     1.099749691600   107.07024083   212.92700515
 H      3   1   2     1.111062878655    91.32559325   107.52408753
 H      3   1   2     1.099463420640   140.25005899   228.97201666
 H      2   1   3     0.965451657676   109.17444056   305.97793285
 H      3   1   2     1.107088953365    97.18778406   358.85092623

---------------------------
INTERNAL COORDINATES (A.U.)
---------------------------
 C      0   0   0     0.000000000000     0.00000000     0.00000000
 O      1   0   0     2.643047659803     0.00000000     0.00000000
 C      1   2   0     4.453809024572    98.91466257     0.00000000
 O      1   2   3     2.641352007791   114.41930874   329.64360954
 H      1   2   3     2.106176700729   110.59993742    93.94984377
 H      1   2   3     2.078225732989   107.07024083   212.92700515
 H      3   1   2     2.099604558225    91.32559325   107.52408753
 H      3   1   2     2.077684759275   140.25005899   228.97201666
 H      2   1   3     1.824439228548   109.17444056   305.97793285
 H      3   1   2     2.092094927750    97.18778406   358.85092623

---------------------
BASIS SET INFORMATION
---------------------
There are 3 groups of distinct atoms

 Group   1 Type C   : 7s4p1d contracted to 3s2p1d pattern {511/31/1}
 Group   2 Type O   : 7s4p1d contracted to 3s2p1d pattern {511/31/1}
 Group   3 Type H   : 4s1p contracted to 2s1p pattern {31/1}

Atom   0C    basis set group =>   1
Atom   1O    basis set group =>   2
Atom   2C    basis set group =>   1
Atom   3O    basis set group =>   2
Atom   4H    basis set group =>   3
Atom   5H    basis set group =>   3
Atom   6H    basis set group =>   3
Atom   7H    basis set group =>   3
Atom   8H    basis set group =>   3
Atom   9H    basis set group =>   3
---------------------------------
AUXILIARY/J BASIS SET INFORMATION
---------------------------------
There are 3 groups of distinct atoms

 Group   1 Type C   : 12s5p4d2f1g contracted to 6s4p3d1f1g pattern {711111/2111/211/2/1}
 Group   2 Type O   : 12s5p4d2f1g contracted to 6s4p3d1f1g pattern {711111/2111/211/2/1}
 Group   3 Type H   : 5s2p1d contracted to 3s1p1d pattern {311/2/1}

Atom   0C    basis set group =>   1
Atom   1O    basis set group =>   2
Atom   2C    basis set group =>   1
Atom   3O    basis set group =>   2
Atom   4H    basis set group =>   3
Atom   5H    basis set group =>   3
Atom   6H    basis set group =>   3
Atom   7H    basis set group =>   3
Atom   8H    basis set group =>   3
Atom   9H    basis set group =>   3


           ************************************************************
           *        Program running with 6 parallel MPI-processes     *
           *              working on a common directory               *
           ************************************************************
------------------------------------------------------------------------------
                             ORCA STARTUP CALCULATIONS
                           -- RI-GTO INTEGRALS CHOSEN --
------------------------------------------------------------------------------
------------------------------------------------------------------------------
                   ___                                                        
                  /   \      - P O W E R E D   B Y -                         
                 /     \                                                     
                 |  |  |   _    _      __       _____    __    __             
                 |  |  |  | |  | |    /  \     |  _  \  |  |  /  |          
                  \  \/   | |  | |   /    \    | | | |  |  | /  /          
                 / \  \   | |__| |  /  /\  \   | |_| |  |  |/  /          
                |  |  |   |  __  | /  /__\  \  |    /   |      \           
                |  |  |   | |  | | |   __   |  |    \   |  |\   \          
                \     /   | |  | | |  |  |  |  | |\  \  |  | \   \       
                 \___/    |_|  |_| |__|  |__|  |_| \__\ |__|  \__/        
                                                                              
                      - O R C A' S   B I G   F R I E N D -                    
                                      &                                       
                       - I N T E G R A L  F E E D E R -                       
                                                                              
 v1 FN, 2020, v2 2021, v3 2022-2024                                           
------------------------------------------------------------------------------


----------------------
SHARK INTEGRAL PACKAGE
----------------------

Number of atoms                             ...     10
Number of basis functions                   ...     86
Number of shells                            ...     42
Maximum angular momentum                    ...      2
Integral batch strategy                     ... SHARK/LIBINT Hybrid
RI-J (if used) integral strategy            ... SPLIT-RIJ (Revised 2003 algorithm where possible)
Printlevel                                  ...      1
Contraction scheme used                     ... SEGMENTED contraction
Prescreening option                         ... SCHWARTZ
   Thresh                                   ... 2.500e-11
   Tcut                                     ... 2.500e-12
   Tpresel                                  ... 2.500e-12 
Coulomb Range Separation                    ... NOT USED
Exchange Range Separation                   ... NOT USED
Multipole approximations                    ... NOT USED
Finite Nucleus Model                        ... NOT USED
CABS basis                                  ... NOT available
Auxiliary Coulomb fitting basis             ... AVAILABLE
   # of basis functions in Aux-J            ...    262
   # of shells in Aux-J                     ...     90
   Maximum angular momentum in Aux-J        ...      4
Auxiliary J/K fitting basis                 ... NOT available
Auxiliary Correlation fitting basis         ... NOT available
Auxiliary 'external' fitting basis          ... NOT available

Checking pre-screening integrals            ... done (  0.0 sec) Dimension = 42
   => SHARK Basis and OBASIS are compatible. Storing Pre-screening
Shell pair information
Shell pair cut-off parameter TPreSel        ...   2.5e-12
Total number of shell pairs                 ...       903
Shell pairs after pre-screening             ...       898
Total number of primitive shell pairs       ...      3151
Primitive shell pairs kept                  ...      2602
          la=0 lb=0:    297 shell pairs
          la=1 lb=0:    334 shell pairs
          la=1 lb=1:    105 shell pairs
          la=2 lb=0:     96 shell pairs
          la=2 lb=1:     56 shell pairs
          la=2 lb=2:     10 shell pairs

Checking whether 4 symmetric matrices of dimension 86 fit in memory
:Max Core in MB      =   4096.00
 MB in use           =      4.42
 MB left             =   4091.58
 MB needed           =      0.11
 Data fit in memory  = YES
Calculating RI/J V-Matrix + Cholesky decomp.... done (  0.0 sec)
Calculating Nuclear repulsion               ... done (  0.0 sec) ENN=    135.628784398158 Eh

Diagonalization of the overlap matrix:
Smallest eigenvalue                        ... 7.065e-03
Time for diagonalization                   ...    0.001 sec
Threshold for overlap eigenvalues          ... 1.000e-07
Number of eigenvalues below threshold      ... 0
Time for construction of square roots      ...    0.001 sec
Total time needed                          ...    0.003 sec

-------------------
DFT GRID GENERATION
-------------------

General Integration Accuracy     IntAcc      ... 4.388
Radial Grid Type                 RadialGrid  ... OptM3 with GC (2021)
Angular Grid (max. ang.)         AngularGrid ... 4 (Lebedev-302)
Angular grid pruning method      GridPruning ... 4 (adaptive)
Weight generation scheme         WeightScheme... mBecke (2022)
Basis function cutoff            BFCut       ... 1.0000e-11
Integration weight cutoff        WCut        ... 1.0000e-14
Partially contracted basis set               ... off
Rotationally invariant grid construction     ... off
Angular grids for H and He will be reduced by one unit

Total number of grid points                  ...    43797
Total number of batches                      ...      691
Average number of points per batch           ...       63
Average number of grid points per atom       ...     4380

--------------------
COSX GRID GENERATION
--------------------

GRIDX 1
-------
General Integration Accuracy     IntAcc      ... 3.816
Radial Grid Type                 RadialGrid  ... OptM3 with GC (2021)
Angular Grid (max. ang.)         AngularGrid ... 1 (Lebedev-50)
Angular grid pruning method      GridPruning ... 4 (adaptive)
Weight generation scheme         WeightScheme... mBecke (2022)
Basis function cutoff            BFCut       ... 1.0000e-11
Integration weight cutoff        WCut        ... 1.0000e-14
Partially contracted basis set               ... on
Rotationally invariant grid construction     ... off
Angular grids for H and He will be reduced by one unit

Total number of grid points                  ...     5624
Total number of batches                      ...       50
Average number of points per batch           ...      112
Average number of grid points per atom       ...      562
UseSFitting                                  ... on

GRIDX 2
-------
General Integration Accuracy     IntAcc      ... 4.020
Radial Grid Type                 RadialGrid  ... OptM3 with GC (2021)
Angular Grid (max. ang.)         AngularGrid ... 2 (Lebedev-110)
Angular grid pruning method      GridPruning ... 4 (adaptive)
Weight generation scheme         WeightScheme... mBecke (2022)
Basis function cutoff            BFCut       ... 1.0000e-11
Integration weight cutoff        WCut        ... 1.0000e-14
Partially contracted basis set               ... on
Rotationally invariant grid construction     ... off
Angular grids for H and He will be reduced by one unit

Total number of grid points                  ...    12026
Total number of batches                      ...       99
Average number of points per batch           ...      121
Average number of grid points per atom       ...     1203
UseSFitting                                  ... on

GRIDX 3
-------
General Integration Accuracy     IntAcc      ... 4.338
Radial Grid Type                 RadialGrid  ... OptM3 with GC (2021)
Angular Grid (max. ang.)         AngularGrid ... 3 (Lebedev-194)
Angular grid pruning method      GridPruning ... 4 (adaptive)
Weight generation scheme         WeightScheme... mBecke (2022)
Basis function cutoff            BFCut       ... 1.0000e-11
Integration weight cutoff        WCut        ... 1.0000e-14
Partially contracted basis set               ... on
Rotationally invariant grid construction     ... off
Angular grids for H and He will be reduced by one unit

Total number of grid points                  ...    26471
Total number of batches                      ...      213
Average number of points per batch           ...      124
Average number of grid points per atom       ...     2647
UseSFitting                                  ... on
Grids setup in   0.5 sec
Initializing property integral containers    ... done (  0.0 sec)

SHARK setup successfully completed in   0.6 seconds

Maximum memory used throughout the entire STARTUP-calculation: 13.4 MB


           ************************************************************
           *        Program running with 6 parallel MPI-processes     *
           *              working on a common directory               *
           ************************************************************
-------------------------------------------------------------------------------
                                 ORCA GUESS
                   Start orbitals & Density for SCF / CASSCF
-------------------------------------------------------------------------------

------------
SCF SETTINGS
------------
Hamiltonian:
 Density Functional     Method          .... DFT(GTOs)
 Exchange Functional    Exchange        .... B88
   X-Alpha parameter    XAlpha          ....  0.666667
   Becke's b parameter  XBeta           ....  0.004200
 Correlation Functional Correlation     .... LYP
 LDA part of GGA corr.  LDAOpt          .... VWN-5
 Gradients option       PostSCFGGA      .... off
 Hybrid DFT is turned on
   Fraction HF Exchange ScalHFX         ....  0.200000
   Scaling of DF-GGA-X  ScalDFX         ....  0.720000
   Scaling of DF-GGA-C  ScalDFC         ....  0.810000
   Scaling of DF-LDA-C  ScalLDAC        ....  1.000000
   Perturbative correction              ....  0.000000
   NL short-range parameter             ....  4.800000
 RI-approximation to the Coulomb term is turned on
   Number of AuxJ basis functions       .... 262
   RIJ-COSX (HFX calculated with COS-X)).... on


General Settings:
 Integral files         IntName         .... orca
 Hartree-Fock type      HFTyp           .... RHF
 Total Charge           Charge          ....    0
 Multiplicity           Mult            ....    1
 Number of Electrons    NEL             ....   34
 Basis Dimension        Dim             ....   86
 Nuclear Repulsion      ENuc            ....    135.6287843982 Eh

Convergence Acceleration:
 AO-DIIS                CNVDIIS         .... on
   Start iteration      DIISMaxIt       ....    12
   Startup error        DIISStart       ....  0.200000
   # of expansion vecs  DIISMaxEq       ....     5
   Bias factor          DIISBfac        ....   1.050
   Max. coefficient     DIISMaxC        ....  10.000
 MO-DIIS                CNVKDIIS        .... off
 Trust-Rad. Augm. Hess. CNVTRAH         .... auto
   Auto Start mean grad. ratio tolernc. ....  1.125000
   Auto Start start iteration           ....    50
   Auto Start num. interpolation iter.  ....    10
   Max. Number of Micro iterations      ....    24
   Max. Number of Macro iterations      .... Maxiter - #DIIS iter
   Number of Davidson start vectors     ....     2
   Converg. threshold    (grad. norm)   ....   1.000e-05
   Grad. Scal. Fac. for Micro threshold ....   0.100
   Minimum threshold for Micro iter.    ....   1.000e-02
   NR start threshold (gradient norm)   ....   1.000e-04
   Initial trust radius                 ....   0.400
   Minimum AH scaling param. (alpha)    ....   1.000
   Maximum AH scaling param. (alpha)    .... 1000.000
   Quad. conv. algorithm                .... NR
   White noise on init. David. guess    .... on
   Maximum white noise                  ....   0.010
   Pseudo random numbers                .... off
   Inactive MOs                         .... canonical
   Orbital update algorithm             .... Taylor
   Preconditioner                       .... Diag
   Full preconditioner red. dimension   ....   250
 SOSCF                 CNVSOSCF           .... on
   Start iteration     SOSCFMaxIt         ....   150
   Startup grad/error  SOSCFStart         ....  0.003300
   Hessian update      SOSCFHessUp        .... L-BFGS
   Autom. constraints  SOSCFAutoConstrain .... off
 Level Shifting         CNVShift        .... on
   Level shift para.    LevelShift      ....    0.2500
   Turn off err/grad.   ShiftErr        ....    0.0010
 Zerner damping         CNVZerner       .... off
 Static damping         CNVDamp         .... on
   Fraction old density DampFac         ....    0.7000
   Max. Damping (<1)    DampMax         ....    0.9800
   Min. Damping (>=0)   DampMin         ....    0.0000
   Turn off err/grad.   DampErr         ....    0.1000

SCF Procedure:
 Maximum # iterations   MaxIter         ....   125
 SCF integral mode      SCFMode         .... Direct
   Integral package                     .... SHARK and LIBINT hybrid scheme
 Reset frequency        DirectResetFreq ....    20
 Integral Threshold     Thresh          ....  2.500e-11 Eh
 Primitive CutOff       TCut            ....  2.500e-12 Eh

Convergence Tolerance:
 Convergence Check Mode ConvCheckMode   .... Total+1el-Energy
 Convergence forced     ConvForced      .... 0
 Energy Change          TolE            ....  1.000e-08 Eh
 1-El. energy change                    ....  1.000e-05 Eh
 Orbital Gradient       TolG            ....  1.000e-05
 Orbital Rotation angle TolX            ....  1.000e-05
 DIIS Error             TolErr          ....  5.000e-07

------------------------------
INITIAL GUESS: MODEL POTENTIAL
------------------------------
Loading Hartree-Fock densities                     ... done
Calculating cut-offs                               ... done
Initializing the effective Hamiltonian             ... done
Setting up the integral package (SHARK)            ... done
Starting the Coulomb interaction                   ... done (   0.0 sec)
Making the grid                                    ... done (   0.1 sec)
Mapping shells                                     ... done
Starting the XC term evaluation                    ... done (   0.0 sec)
  promolecular density results
     # of electrons  =     33.997137693
     EX              =    -28.455710367
     EC              =     -1.150027110
     EX+EC           =    -29.605737477
Transforming the Hamiltonian                       ... done (   0.0 sec)
Diagonalizing the Hamiltonian                      ... done (   0.0 sec)
Back transforming the eigenvectors                 ... done (   0.0 sec)
Now organizing SCF variables                       ... done
                      ------------------
                      INITIAL GUESS DONE (   0.1 sec)
                      ------------------
             **** ENERGY FILE WAS UPDATED (orca.en.tmp) ****
Finished Guess after   0.2 sec
Maximum memory used throughout the entire GUESS-calculation: 6.7 MB


           ************************************************************
           *        Program running with 6 parallel MPI-processes     *
           *              working on a common directory               *
           ************************************************************

-------------------------------------------------------------------------------------------
                                      ORCA LEAN-SCF
                              memory conserving SCF solver
-------------------------------------------------------------------------------------------

----------------------------------------D-I-I-S--------------------------------------------
Iteration    Energy (Eh)           Delta-E    RMSDP     MaxDP     DIISErr   Damp  Time(sec)
-------------------------------------------------------------------------------------------
               ***  Starting incremental Fock matrix formation  ***
    1    -229.8212569437388879     0.00e+00  1.11e-02  7.23e-02  2.39e-01  0.700   0.3
    2    -229.8808027557610671    -5.95e-02  7.20e-03  4.04e-02  1.02e-01  0.700   0.2
                               ***Turning on AO-DIIS***
    3    -229.9033403009298127    -2.25e-02  2.66e-03  1.17e-02  2.73e-02  0.700   0.2
    4    -229.9171953712935306    -1.39e-02  4.21e-03  2.05e-02  1.32e-02  0.000   0.2
    5    -229.9480375612238845    -3.08e-02  7.67e-04  4.25e-03  3.59e-03  0.000   0.2
                              *** Initializing SOSCF ***
---------------------------------------S-O-S-C-F--------------------------------------
Iteration    Energy (Eh)           Delta-E    RMSDP     MaxDP     MaxGrad    Time(sec)
--------------------------------------------------------------------------------------
    6    -229.9481236602508716    -8.61e-05  2.72e-04  1.50e-03  7.40e-04     0.2
               *** Restarting incremental Fock matrix formation ***
    7    -229.9481379105251335    -1.43e-05  1.76e-04  9.19e-04  1.09e-04     0.3
    8    -229.9481385536342941    -6.43e-07  4.12e-05  3.64e-04  7.74e-05     0.4
    9    -229.9481387381063655    -1.84e-07  2.65e-05  1.36e-04  2.60e-05     0.3
   10    -229.9481387605783311    -2.25e-08  5.68e-06  4.25e-05  1.19e-05     0.3
   11    -229.9481387641216656    -3.54e-09  3.60e-06  2.20e-05  9.87e-06     0.3
                 **** Energy Check signals convergence ****

               *****************************************************
               *                     SUCCESS                       *
               *           SCF CONVERGED AFTER  11 CYCLES          *
               *****************************************************

Recomputing exchange energy using gridx3       ... done (    0.423 sec)
Old exchange energy                            :     -5.786159830 Eh
New exchange energy                            :     -5.786169269 Eh
Exchange energy change after final integration :     -0.000009439 Eh
Total energy after final integration           :   -229.948148204 Eh
             **** ENERGY FILE WAS UPDATED (orca.en.tmp) ****

----------------
TOTAL SCF ENERGY
----------------

Total Energy       :       -229.94814820442755 Eh           -6257.20722 eV

Components:
Nuclear Repulsion  :        135.62878439815796 Eh            3690.64685 eV
Electronic Energy  :       -365.57692316368667 Eh           -9947.85382 eV
One Electron Energy:       -582.20872211866958 Eh          -15842.70476 eV
Two Electron Energy:        216.63179895498291 Eh            5894.85094 eV

Virial components:
Potential Energy   :       -458.01822351519405 Eh          -12463.30948 eV
Kinetic Energy     :        228.07007531076650 Eh            6206.10226 eV
Virial Ratio       :          2.00823463091816

DFT components:
N(Alpha)           :       17.000000587358 electrons
N(Beta)            :       17.000000587358 electrons
N(Total)           :       34.000001174716 electrons
E(X)               :      -23.002153110300 Eh       
E(C)               :       -1.359552298067 Eh       
E(XC)              :      -24.361705408367 Eh       

---------------
SCF CONVERGENCE
---------------

  Last Energy change         ...    3.5433e-09  Tolerance :   1.0000e-08
  Last MAX-Density change    ...    2.2019e-05  Tolerance :   1.0000e-07
  Last RMS-Density change    ...    3.5953e-06  Tolerance :   5.0000e-09
  Last DIIS Error            ...    7.3978e-04  Tolerance :   5.0000e-07
  Last Orbital Gradient      ...    9.8693e-06  Tolerance :   1.0000e-05
  Last Orbital Rotation      ...    6.5301e-06  Tolerance :   1.0000e-05


----------------
ORBITAL ENERGIES
----------------

  NO   OCC          E(Eh)            E(eV) 
   0   2.0000     -19.135389      -520.7004 
   1   2.0000     -19.131755      -520.6015 
   2   2.0000     -10.275993      -279.6240 
   3   2.0000     -10.233288      -278.4619 
   4   2.0000      -1.052499       -28.6400 
   5   2.0000      -0.989818       -26.9343 
   6   2.0000      -0.714403       -19.4399 
   7   2.0000      -0.623195       -16.9580 
   8   2.0000      -0.532803       -14.4983 
   9   2.0000      -0.496671       -13.5151 
  10   2.0000      -0.481484       -13.1018 
  11   2.0000      -0.436568       -11.8796 
  12   2.0000      -0.401754       -10.9323 
  13   2.0000      -0.345729        -9.4078 
  14   2.0000      -0.329787        -8.9740 
  15   2.0000      -0.290401        -7.9022 
  16   2.0000      -0.268264        -7.2998 
  17   0.0000       0.040210         1.0942 
  18   0.0000       0.092730         2.5233 
  19   0.0000       0.101823         2.7707 
  20   0.0000       0.113454         3.0872 
  21   0.0000       0.136640         3.7182 
  22   0.0000       0.149870         4.0782 
  23   0.0000       0.156020         4.2455 
  24   0.0000       0.233937         6.3657 
  25   0.0000       0.258611         7.0372 
  26   0.0000       0.430473        11.7138 
  27   0.0000       0.457959        12.4617 
*Only the first 10 virtual orbitals were printed.

                    ********************************
                    * MULLIKEN POPULATION ANALYSIS *
                    ********************************

-----------------------
MULLIKEN ATOMIC CHARGES
-----------------------
   0 C :    0.323195
   1 O :   -0.300346
   2 C :    0.173305
   3 O :   -0.367470
   4 H :   -0.024685
   5 H :    0.014940
   6 H :   -0.011350
   7 H :    0.029543
   8 H :    0.164976
   9 H :   -0.002109
Sum of atomic charges:   -0.0000000

--------------------------------
MULLIKEN REDUCED ORBITAL CHARGES
--------------------------------
  0 C s       :     2.967421  s :     2.967421
      pz      :     0.942752  p :     2.613586
      px      :     0.714885
      py      :     0.955949
      dz2     :     0.020102  d :     0.095798
      dxz     :     0.018703
      dyz     :     0.007637
      dx2y2   :     0.026265
      dxy     :     0.023092

  1 O s       :     3.723694  s :     3.723694
      pz      :     1.640289  p :     4.563346
      px      :     1.448273
      py      :     1.474784
      dz2     :     0.001672  d :     0.013307
      dxz     :     0.003544
      dyz     :     0.003795
      dx2y2   :     0.002867
      dxy     :     0.001429

  2 C s       :     2.994307  s :     2.994307
      pz      :     0.965130  p :     2.777001
      px      :     1.038006
      py      :     0.773865
      dz2     :     0.013385  d :     0.055387
      dxz     :     0.002766
      dyz     :     0.012255
      dx2y2   :     0.013216
      dxy     :     0.013764

  3 O s       :     3.762148  s :     3.762148
      pz      :     1.754713  p :     4.589048
      px      :     1.531472
      py      :     1.302863
      dz2     :     0.002204  d :     0.016274
      dxz     :     0.002696
      dyz     :     0.003493
      dx2y2   :     0.004662
      dxy     :     0.003219

  4 H s       :     1.005004  s :     1.005004
      pz      :     0.014111  p :     0.019681
      px      :     0.002230
      py      :     0.003340

  5 H s       :     0.966293  s :     0.966293
      pz      :     0.005093  p :     0.018767
      px      :     0.001347
      py      :     0.012326

  6 H s       :     0.989557  s :     0.989557
      pz      :     0.014146  p :     0.021792
      px      :     0.005066
      py      :     0.002581

  7 H s       :     0.948972  s :     0.948972
      pz      :     0.005321  p :     0.021485
      px      :     0.012628
      py      :     0.003536

  8 H s       :     0.766130  s :     0.766130
      pz      :     0.021604  p :     0.068894
      px      :     0.018558
      py      :     0.028732

  9 H s       :     0.980062  s :     0.980062
      pz      :     0.006325  p :     0.022046
      px      :     0.009330
      py      :     0.006391



                     *******************************
                     * LOEWDIN POPULATION ANALYSIS *
                     *******************************

----------------------
LOEWDIN ATOMIC CHARGES
----------------------
   0 C :    0.140298
   1 O :   -0.128370
   2 C :    0.060137
   3 O :   -0.170342
   4 H :   -0.016115
   5 H :    0.015424
   6 H :    0.000657
   7 H :    0.024214
   8 H :    0.074105
   9 H :   -0.000008

-------------------------------
LOEWDIN REDUCED ORBITAL CHARGES
-------------------------------
  0 C s       :     2.842352  s :     2.842352
      pz      :     1.015110  p :     2.806941
      px      :     0.813792
      py      :     0.978039
      dz2     :     0.048961  d :     0.210409
      dxz     :     0.039596
      dyz     :     0.015355
      dx2y2   :     0.059191
      dxy     :     0.047306

  1 O s       :     3.447836  s :     3.447836
      pz      :     1.672513  p :     4.655540
      px      :     1.472687
      py      :     1.510340
      dz2     :     0.001947  d :     0.024995
      dxz     :     0.006023
      dyz     :     0.007402
      dx2y2   :     0.006018
      dxy     :     0.003604

  2 C s       :     2.848152  s :     2.848152
      pz      :     1.035675  p :     2.964767
      px      :     1.080102
      py      :     0.848990
      dz2     :     0.033406  d :     0.126944
      dxz     :     0.006054
      dyz     :     0.026596
      dx2y2   :     0.028895
      dxy     :     0.031993

  3 O s       :     3.466849  s :     3.466849
      pz      :     1.762076  p :     4.673571
      px      :     1.559935
      py      :     1.351560
      dz2     :     0.003498  d :     0.029922
      dxz     :     0.003921
      dyz     :     0.006298
      dx2y2   :     0.009283
      dxy     :     0.006922

  4 H s       :     0.953840  s :     0.953840
      pz      :     0.043930  p :     0.062276
      px      :     0.008487
      py      :     0.009859

  5 H s       :     0.924886  s :     0.924886
      pz      :     0.013883  p :     0.059690
      px      :     0.007364
      py      :     0.038444

  6 H s       :     0.936591  s :     0.936591
      pz      :     0.042282  p :     0.062752
      px      :     0.011957
      py      :     0.008513

  7 H s       :     0.913702  s :     0.913702
      pz      :     0.013296  p :     0.062084
      px      :     0.036413
      py      :     0.012374

  8 H s       :     0.746222  s :     0.746222
      pz      :     0.061824  p :     0.179673
      px      :     0.044009
      py      :     0.073839

  9 H s       :     0.936167  s :     0.936167
      pz      :     0.015890  p :     0.063841
      px      :     0.026929
      py      :     0.021022



                      *****************************
                      * MAYER POPULATION ANALYSIS *
                      *****************************

  NA   - Mulliken gross atomic population
  ZA   - Total nuclear charge
  QA   - Mulliken gross atomic charge
  VA   - Mayer's total valence
  BVA  - Mayer's bonded valence
  FA   - Mayer's free valence

  ATOM       NA         ZA         QA         VA         BVA        FA
  0 C      5.6768     6.0000     0.3232     4.0992     4.0992    -0.0000
  1 O      8.3003     8.0000    -0.3003     2.1187     2.1187    -0.0000
  2 C      5.8267     6.0000     0.1733     3.9516     3.9516    -0.0000
  3 O      8.3675     8.0000    -0.3675     2.1055     2.1055    -0.0000
  4 H      1.0247     1.0000    -0.0247     0.9813     0.9813    -0.0000
  5 H      0.9851     1.0000     0.0149     0.9826     0.9826    -0.0000
  6 H      1.0113     1.0000    -0.0113     0.9861     0.9861     0.0000
  7 H      0.9705     1.0000     0.0295     0.9892     0.9892    -0.0000
  8 H      0.8350     1.0000     0.1650     1.0157     1.0157     0.0000
  9 H      1.0021     1.0000    -0.0021     0.9926     0.9926    -0.0000

  Mayer bond orders larger than 0.100000
B(  0-C ,  1-O ) :   1.0891 B(  0-C ,  3-O ) :   1.0459 B(  0-C ,  4-H ) :   0.9455 
B(  0-C ,  5-H ) :   0.9587 B(  1-O ,  8-H ) :   0.9797 B(  2-C ,  3-O ) :   0.9998 
B(  2-C ,  6-H ) :   0.9549 B(  2-C ,  7-H ) :   0.9814 B(  2-C ,  9-H ) :   0.9627 


-------
TIMINGS
-------

Total SCF time: 0 days 0 hours 0 min 3 sec 

Total time                  ....       3.849 sec
Sum of individual times     ....       3.559 sec  ( 92.4%)

SCF preparation             ....       0.162 sec  (  4.2%)
Fock matrix formation       ....       3.248 sec  ( 84.4%)
  Startup                   ....       0.003 sec  (  0.1% of F)
  Split-RI-J                ....       0.236 sec  (  7.3% of F)
  Chain of spheres X        ....       2.304 sec  ( 70.9% of F)
  XC integration            ....       0.859 sec  ( 26.4% of F)
    XC Preparation          ....       0.000 sec  (  0.0% of XC)
    Basis function eval.    ....       0.224 sec  ( 26.1% of XC)
    Density eval.           ....       0.110 sec  ( 12.8% of XC)
    XC-Functional eval.     ....       0.056 sec  (  6.5% of XC)
    XC-Potential eval.      ....       0.123 sec  ( 14.3% of XC)
Diagonalization             ....       0.000 sec  (  0.0%)
Density matrix formation    ....       0.022 sec  (  0.6%)
Total Energy calculation    ....       0.013 sec  (  0.3%)
Population analysis         ....       0.010 sec  (  0.3%)
Orbital Transformation      ....       0.011 sec  (  0.3%)
Orbital Orthonormalization  ....       0.000 sec  (  0.0%)
DIIS solution               ....       0.058 sec  (  1.5%)
SOSCF solution              ....       0.036 sec  (  0.9%)
Finished LeanSCF after   3.9 sec

Maximum memory used throughout the entire LEANSCF-calculation: 7.8 MB


-------------------------------------------------------------------------------
                          DFT DISPERSION CORRECTION                            
                                                                               
                              DFTD3 V3.1  Rev 1                                
                          USING Becke-Johnson damping                          
-------------------------------------------------------------------------------
The B3LYP functional is recognized
Active option DFTDOPT                   ...         4   

molecular C6(AA) [au] = 644.348017 


            DFT-D V3
 parameters
 s6 scaling factor         :     1.0000 
 a1 scaling factor         :     0.3981 
 s8 scaling factor         :     1.9889 
 a2 scaling factor         :     4.4211 
 ad hoc parameters k1-k3   :    16.0000     1.3333    -4.0000 

 Edisp/kcal,au: -5.429637370134  -0.008652676996 
 E6   /kcal   :  -2.734376732 
 E8   /kcal   :  -2.695260639 
 % E8         :  49.639790927 

-------------------------   ----------------
Dispersion correction           -0.008652677
-------------------------   ----------------


-------------------------   --------------------
FINAL SINGLE POINT ENERGY      -229.956800881423
-------------------------   --------------------



           ************************************************************
           *        Program running with 6 parallel MPI-processes     *
           *              working on a common directory               *
           ************************************************************
------------------------------------------------------------------------------
                         ORCA SCF GRADIENT CALCULATION
------------------------------------------------------------------------------

Nuc. rep. gradient        (SHARK) ... done (  0.0 sec)
HCore & Overlap gradient  (SHARK) ... done (  0.0 sec)
Split-RIJ-J gradient      (SHARK) ... done (  0.1 sec)
done (  1.8 sec)
XC gradient                       ... done (  0.4 sec)
Dispersion correction             ... done (  0.1 sec)

-------------------
DISPERSION GRADIENT
-------------------

   1   C   :   -0.000095308   -0.000201984   -0.000002196
   2   O   :   -0.000258896   -0.000124695   -0.000071838
   3   C   :    0.000225583    0.000225653    0.000018917
   4   O   :    0.000112604   -0.000031432   -0.000034408
   5   H   :   -0.000051463   -0.000137142    0.000077966
   6   H   :   -0.000018136   -0.000181023   -0.000029957
   7   H   :    0.000124589    0.000137209    0.000096604
   8   H   :    0.000130538    0.000118091   -0.000013860
   9   H   :   -0.000239309    0.000000297   -0.000011916
  10   H   :    0.000069798    0.000195025   -0.000029312

Difference to translation invariance:
           :    0.0000000000   -0.0000000000    0.0000000000

Difference to rotation invariance:
           :    0.0000000000   -0.0000000000   -0.0000000000

Norm of the Dispersion gradient    ...    0.0007015733
RMS gradient                       ...    0.0001280892
MAX gradient                       ...    0.0002588964

------------------
CARTESIAN GRADIENT
------------------

   1   C   :   -0.000024954   -0.000068549    0.000082679
   2   O   :    0.000051798    0.000106213    0.000017960
   3   C   :   -0.000169834   -0.000114911   -0.000004803
   4   O   :    0.000121236    0.000211123   -0.000050023
   5   H   :    0.000010362   -0.000056387    0.000007110
   6   H   :   -0.000061974    0.000042315    0.000043571
   7   H   :   -0.000007041   -0.000089978    0.000019099
   8   H   :   -0.000002097    0.000025921   -0.000022894
   9   H   :    0.000027153   -0.000053181   -0.000033460
  10   H   :    0.000055353   -0.000002567   -0.000059238

Difference to translation invariance:
           :   -0.0000000000   -0.0000000000   -0.0000000001

Difference to rotation invariance:
           :    0.0000874817    0.0000070392    0.0000385761

Norm of the Cartesian gradient     ...    0.0004026552
RMS gradient                       ...    0.0000735144
MAX gradient                       ...    0.0002111229

-------
TIMINGS
-------

Total SCF gradient time     ....        2.428 sec

Densities                   ....       0.000 sec  (  0.0%)
One electron gradient       ....       0.020 sec  (  0.8%)
RI-J Coulomb gradient       ....       0.150 sec  (  6.2%)
COSX gradient               ....       1.819 sec  ( 74.9%)
XC gradient                 ....       0.383 sec  ( 15.8%)

Maximum memory used throughout the entire SCFGRAD-calculation: 26.6 MB


           ************************************************************
           *        Program running with 6 parallel MPI-processes     *
           *              working on a common directory               *
           ************************************************************

------------------------------------------------------------------------------
                              ORCA PROPERTY CALCULATIONS
------------------------------------------------------------------------------

GBWName                                 ... orca.gbw
Number of atoms                         ...     10
Number of basis functions               ...     86
Max core memory                         ...   4096 MB

Electric properties:
Dipole moment                           ... YES
Quadrupole moment                       ...  NO
Static polarizability (Dipole/Dipole)   ...  NO
Static polarizability (Dipole/Quad.)    ...  NO
Static polarizability (Quad./Quad.)     ...  NO
Static polarizability (Velocity)        ...  NO
Static hyperpolarizability              ...  NO

Atomic electric properties:
Dipole moment                           ...  NO
Quadrupole moment                       ...  NO
Static polarizability                   ...  NO

Choice of electric origin               ... Center of mass
Position of electric origin             ...     0.328297    -0.225604    -0.179329

General magnetic properties:
Magnetizability                         ...  NO

EPR properties:
g-Tensor (aka g-matrix)                 ...  NO
Zero-Field splitting spin-orbit         ...  NO
Zero-field splitting spin-spin          ...  NO
Hyperfine couplings                     ...  NO (   0 nuclei)
Quadrupole couplings                    ...  NO (   0 nuclei)
Contact density                         ...  NO (   0 nuclei)

NMR properties:
Chemical shifts                         ...  NO (   0 nuclei)
Spin-rotation constants                 ...  NO (   0 nuclei)
Spin-spin couplings                     ...  NO (   0 nuclei,    0 pairs)

Choice of magnetic origin               ... GIAO
Position of magnetic origin             ...     0.000000     0.000000     0.000000

Properties with geometric perturbations:
SCF Hessian                             ...  NO
IR spectrum                             ...  NO
VCD spectrum                            ...  NO
X-ray spectroscopy properties:
SCF XES/XAS/RIXS spectra                ...  NO

SCF SOC stabilization energy            ...  NO
Diagonal Born-Oppenheimer correction    ...  NO

-------------
DIPOLE MOMENT
-------------

Method             : SCF
Type of density    : Electron Density
Multiplicity       :   1
Irrep              :   0
Energy             :  -229.9481482044275538 Eh
Basis              : AO
                                X                 Y                 Z
Electronic contribution:     -0.866614986      -1.746405638      -1.651149423
Nuclear contribution   :      0.743382007       2.263978775       2.419428000
                        -----------------------------------------
Total Dipole Moment    :     -0.123232979       0.517573138       0.768278577
                        -----------------------------------------
Magnitude (a.u.)       :      0.934516073
Magnitude (Debye)      :      2.375351086



--------------------
Rotational spectrum 
--------------------
 
Rotational constants in cm-1:             0.576938             0.187168             0.158560 
Rotational constants in MHz :         17296.163560          5611.140539          4753.495704 

Dipole components along the rotational axes: 
x,y,z [a.u.] :    -0.252661    -0.509549    -0.741514 
x,y,z [Debye]:    -0.642213    -1.295169    -1.884779 

 

Dipole moment calculation done in   0.0 sec 

Maximum memory used throughout the entire PROP-calculation: 4.7 MB

--------------------------------
SUGGESTED CITATIONS FOR THIS RUN
--------------------------------

Below you find a list of papers that are relevant to this ORCA run
We neither can nor want to force you to cite these papers, but we appreciate if you do
You receive ORCA, which is the product of decades of hard work by many enthusiastic individuals, for free
The only thing we kindly ask in return is that you cite our papers,
We deeply appreciate it, if you show your appreciation for ORCA by not just citing the generic ORCA reference.

Please note that relegating all ORCA citations to the supporting information does *not* help us.
SI sections are not indexed - citations you put there will not count into any citation statistics
But we need these citations in order to attract the funding resources that allow us to do what we are doing

Therefore, if you are a happy ORCA user, please consider citing a few of the papers listed below in the main body of your paper

In addition to the list printed below, the program has created the file orca.bibtex that contains the list in bibtex format
You can import this file easily into all common literature databanks and citation aid programs


List of essential papers. We consider these as the minimum necessary citations

  1. Neese, F.
     Software update: the ORCA program system, version 6.0
     WIRES Comput. Molec. Sci. 2025 15(1), e70019
     doi.org/10.1002/wcms.7019

List of papers to cite with high priority. The work reported in these papers was absolutely
necessary for this run to complete.
Our perspective: the developers of density functionals and basis sets usually get cited in chemistry papers
Good! But without the algorithms to do something with them, the functionals or basis sets would not do anything.
Hence, in our opinion, the algorithm design and method developments papers are equally worthy of getting cited

  1. Neese, F.
     An improvement of the resolution of the identity approximation for the formation of the Coulomb matrix
     J. Comp. Chem. 2003 24(14), 1740-1747
     doi.org/10.1002/jcc.10318
  2. Neese, F.; Wennmohs, F.; Hansen, A.; Becker, U.
     Efficient, approximate and parallel Hartree-Fock and hybrid DFT calculations. A 'chain-of-spheres' algorithm for the Hartree-Fock exchange
     Chem. Phys. 2009 356(1-3), 98-109
     doi.org/10.1016/j.chemphys.2008.10.036
  3. Grimme, S.; Antony, J.; Ehrlich, S.; Krieg, H.
     A consistent and accurate ab initio parametrization of density functional dispersion correction (DFT-D) for the 94 elements H-Pu
     J. Chem. Phys. 2010 132 , 154104
     doi.org/10.1063/1.3382344
  4. Grimme, S.; Ehrlich, S.; Goerigk, L.
     Effect of the damping function in dispersion corrected density functional theory
     J. Comput. Chem. 2011 32(7), 1456-1465
     doi.org/10.1002/jcc.21759
  5. Helmich-Paris, B.; de Souza, B.; Neese, F.; Izsák, R.
     An improved chain of spheres for exchange algorithm
     J. Chem. Phys. 2021 155(10), 104109
     doi.org/10.1063/5.0058766
  6. Neese, F.
     The SHARK Integral Generation and Digestion System
     J. Comp. Chem. 2022 44(3), 381
     doi.org/10.1002/jcc.26942

List of suggested additional citations. These are papers that are important in the 'surrounding' of 
of this run, or papers that preceded the highly important papers. If you like your results we are grateful for a citation.

  1. Izsak, R.; Neese, F.
     An overlap fitted chain of spheres exchange method
     J. Chem. Phys. 2011 135 , 144105
     doi.org/10.1063/1.3646921
  2. Izsak, R.; Hansen, A.; Neese, F.
     The resolution of identity and chain of spheres approximations for the LPNO-CCSD singles Fock term
     Molec. Phys. 2012 110 , 2413-2417
     doi.org/10.1080/00268976.2012.687466
  3. Neese, F.
     The ORCA program system
     WIRES Comput. Molec. Sci. 2012 2(1), 73-78
     doi.org/10.1002/wcms.81
  4. Izsak, R.; Neese, F.; Klopper, W.
     Robust fitting techniques in the chain of spheres approximation to the Fock exchange: The role of the complementary space
     J. Chem. Phys. 2013 139 , 
     doi.org/10.1063/1.4819264
  5. Neese, F.
     Software update: the ORCA program system, version 4.0
     WIRES Comput. Molec. Sci. 2018 8(1), 1-6
     doi.org/10.1002/wcms.1327
  6. Neese, F.; Wennmohs, F.; Becker, U.; Riplinger, C.
     The ORCA quantum chemistry program package
     J. Chem. Phys. 2020 152(22), 224108
     doi.org/10.1063/5.0004608
  7. Neese, F.
     Software update: The ORCA program system—Version 5.0
     WIRES Comput. Molec. Sci. 2022 12(1), e1606
     doi.org/10.1002/wcms.1606

List of optional additional citations

  1. Neese, F.
     Approximate second-order SCF convergence for spin unrestricted wavefunctions
     Chem. Phys. Lett. 2000 325(1-3), 93-98
     doi.org/10.1016/s0009-2614(00)00662-x

Timings for individual modules:

Sum of individual times          ...        9.059 sec (=   0.151 min)
Startup calculation              ...        0.945 sec (=   0.016 min)  10.4 %
SCF iterations                   ...        4.761 sec (=   0.079 min)  52.6 %
Property calculations            ...        0.466 sec (=   0.008 min)   5.1 %
SCF Gradient evaluation          ...        2.887 sec (=   0.048 min)  31.9 %
                             ****ORCA TERMINATED NORMALLY****
TOTAL RUN TIME: 0 days 0 hours 0 minutes 9 seconds 732 msec
