
                                 *****************
                                 * O   R   C   A *
                                 *****************

                                            #,                                       
                                            ###                                      
                                            ####                                     
                                            #####                                    
                                            ######                                   
                                           ########,                                 
                                     ,,################,,,,,                         
                               ,,#################################,,                 
                          ,,##########################################,,             
                       ,#########################################, ''#####,          
                    ,#############################################,,   '####,        
                  ,##################################################,,,,####,       
                ,###########''''           ''''###############################       
              ,#####''   ,,,,##########,,,,          '''####'''          '####       
            ,##' ,,,,###########################,,,                        '##       
           ' ,,###''''                  '''############,,,                           
         ,,##''                                '''############,,,,        ,,,,,,###''
      ,#''                                            '''#######################'''  
     '                                                          ''''####''''         
             ,#######,   #######,   ,#######,      ##                                
            ,#'     '#,  ##    ##  ,#'     '#,    #''#        ,####,    ,#,          
            ##       ##  ##   ,#'  ##            #'  '#       #'       ,# #          
            ##       ##  #######   ##           ,######,      #####,      #          
            '#,     ,#'  ##    ##  '#,     ,#' ,#      #,     #,   #      #          
             '#######'   ##     ##  '#######'  #'      '#     '####' #    #          



                #########################################################
                #                        -***-                          #
                #          Department of theory and spectroscopy        #
                #                                                       #
                #                      Frank Neese                      #
                #                                                       #
                #     Directorship, Architecture, Infrastructure        #
                #                    SHARK, DRIVERS                     #
                #        Core code/Algorithms in most modules           #
                #                                                       #
                #        Max Planck Institute fuer Kohlenforschung      #
                #                Kaiser Wilhelm Platz 1                 #
                #                 D-45470 Muelheim/Ruhr                 #
                #                      Germany                          #
                #                                                       #
                #                  All rights reserved                  #
                #                        -***-                          #
                #########################################################


                         Program Version 6.1.0  -  RELEASE   -
                                (GIT: $679e74b$)
                          ($2025-06-10 18:02:51 +0200$)


 With contributions from (in alphabetic order):
[Max-Planck-Institut fuer Kohlenforschung]                               
  Daniel Aravena         : Magnetic Suceptibility                        
  Michael Atanasov       : Ab Initio Ligand Field Theory (pilot matlab implementation)
  Alexander A. Auer      : GIAO ZORA, VPT2 properties, NMR spectrum      
  Ute Becker             : All parallelization in ORCA, NUMFREQ, NUMCALC 
  Giovanni Bistoni       : ED, misc. LED, open-shell LED, HFLD           
  Dmytro Bykov           : pre 5.0 version of the SCF Hessian            
  Marcos Casanova-Páez   : Triplet and SCS-CIS(D). UHF-(DLPNO)-IP/EA/STEOM-CCSD. UHF-CVS-IP/STEOM-CCSD   
  Vijay G. Chilkuri      : MRCI spin determinant printing, contributions to CSF-ICE 
  Pauline Colinet        : FMM embedding                                 
  Dipayan Datta          : RHF DLPNO-CCSD density                        
  Achintya Kumar Dutta   : EOM-CC, STEOM-CC                              
  Nicolas Foglia         : Exact transition moments, OPA infrastructure, MCD improvements    
  Dmitry Ganyushin       : Spin-Orbit,Spin-Spin,Magnetic field MRCI      
  Miquel Garcia-Rates    : C-PCM and meta-GGA Hessian, CCSD/C-PCM, Gaussian charge scheme 
  Tiago L. C. Gouveia    : GS-ROHF, GS-ROCIS                             
  Yang Guo               : DLPNO-NEVPT2, F12-NEVPT2, CIM, IAO-localization        
  Andreas Hansen         : Spin unrestricted coupled pair/coupled cluster methods 
  Ingolf Harden          : AUTO-CI MPn and infrastructure                
  Benjamin Helmich-Paris : MC-RPA, TRAH-(SCF,CASSCF), AVAS, COSX integrals, SCF dyn. polar., MC-PDFT, srDFT 
  Lee Huntington         : MR-EOM, pCC                                   
  Robert Izsak           : Overlap fitted RIJCOSX, COSX-SCS-MP3, EOM     
  Riya Kayal             : Wick's Theorem for AUTO-CI, AUTO-CI UHF-CCSDT 
  Emily Kempfer          : AUTO-CI RHF CISDT and CCSDT, approximate NEVPT4
  Christian Kollmar      : KDIIS, OOCD, Brueckner-CCSD(T), CCSD density, CASPT2, CASPT2-K, improved NEVPT2 
  Axel Koslowski         : Symmetry handling                             
  Simone Kossmann        : meta-GGA functionals, TD-DFT gradient, OOMP2, (MP2 Hessian; deprecated post 5.0) 
  Lucas Lang             : DCDCAS, Hyperfine gauge corrections, ICE-SOC+SSC
  Marvin Lechner         : AUTO-CI (C++ implementation), FIC-MRCC        
  Spencer Leger          : CASSCF response                               
  Dagmar Lenk            : GEPOL surface, SMD, ORCA-2-JSON               
  Dimitrios Liakos       : Extrapolation schemes; Compound Job, Property file
  Dimitrios Manganas     : Further ROCIS development; embedding schemes. LFT, Crystal Embedding 
  Dimitrios Pantazis     : SARC Basis sets                               
  Anastasios Papadopoulos: AUTO-CI, single reference methods and gradients 
  Taras Petrenko         : pre 6.0 DFT Hessian and TD-DFT gradient,  ECA, NRVS 
  Petra Pikulova         : Analytic Raman intensities                    
  Peter Pinski           : DLPNO-MP2, DLPNO-MP2 Gradient                 
  Shashank Vittal Rao    : ES-AILFT, MagRelax                            
  Christoph Reimann      : Effective Core Potentials                     
  Marius Retegan         : Local ZFS, SOC                                
  Christoph Riplinger    : Optimizer, TS searches, QM/MM, DLPNO-CCSD(T), (RO)-DLPNO pert. Triples 
  Michael Roemelt        : Original ROCIS implementation, recursive CI coupling coefficients
  Masaaki Saitow         : Open-shell DLPNO-CCSD energy and density      
  Barbara Sandhoefer     : DKH picture change effects                    
  Yorick L. A. Schmerwitz: GMF and freeze-and-release deltaSCF, NEB S-IDPP initial path                    
  Kantharuban Sivalingam : CASSCF convergence/infrastructure, NEVPT2, NEVPT3, NEVPT4(SD), FIC-MRCI and CEPA variants
  Bernardo de Souza      : ESD, SOC TD-DFT                               
  Georgi L. Stoychev     : AutoAux, RI-MP2 NMR, DLPNO-MP2 response, X2C  
  Van Anh Tran           : RI-MP2 g-tensors                              
  Willem Van den Heuvel  : Paramagnetic NMR                              
  Zikuan Wang            : NOTCH, Electric field optimization            
  Frank Wennmohs         : Technical directorship and infrastructure     
  Hang Xu                : AUTO-CI-Response properties                   
                                                                         
[FACCTs GmbH]                                                            
  Markus Bursch, Nicolas Foglia, Miquel Garcia-Rates, Ingolf Harden, Hagen Neugebauer, Anastasios Papadopoulos, 
  Christoph Riplinger, Bernardo de Souza, Georgi L. Stoychev                                                    
                                                                 
  APM, various basis sets, CI-OPT, improved COSX, DLPNO-Multilevel,           
  DOCKER, DRACO, updates on ESD, Fragmentator, GOAT, IRC, LR-CPCM, L-BFGS, MBIS, meta-GGA TD-DFT gradient, ML-optimized integration grids, 
  MM, NACMEs, nearIR, NEB, NEB-TS, NL-DFT gradient (VV10), 2- and 3-layer-ONIOM, interface openCOSMO-RS, QMMM,   
  Crystal-QMMM, RESP, rigid body optimization, SF, symmetry and pop. for TD-DFT, various functionals, SOLVATOR                                   
                                                                         
[Other institutions]                                                     
  V. Asgeirsson          : NEB                                           
  Christoph Bannwarth    : sTDA-DFT, sTD-DFT, PBEh-3c, B97-3c, D3        
  Giovanni Bistoni       : ETS/NOCV, ADLD/ADEX, COVALED                  
  Martin Brehm           : Molecular dynamics                            
  Ronald Cardenas        : ETS/NOCV                                      
  Martina Colucci        : COVALED                                       
  Sebastian Ehlert       : rSCAN, r2SCAN, r2SCAN-3c, D4, dhf basis sets  
  Marvin Friede          : D4 for Fr, Ra, Ac-Lr                          
  Lars Goerigk           : TD-DFT with DH, B97 family of functionals     
  Stefan Grimme          : VdW corrections, initial TS optimization, DFT functionals, gCP, sTDA/sTD-DF 
  Waldemar Hujo          : DFT-NL                                        
  H. Jonsson             : NEB                                           
  Holger Kruse           : gCP                                           
  Marcel Mueller         : wB97X-3c, vDZP basis set                      
  Hagen Neugebauer       : wr2SCAN, Native XTB                           
  Gianluca Regni         : ADLD/ADEX                                     
  Tobias Risthaus        : pre 6.0 range-separated hybrid DFT and stability analysis
  Lukas Wittmann         : regularized MP2, r2SCAN double-hybrids, wr2SCAN        
                                                                         
We gratefully acknowledge several colleagues who have allowed us to      
interface, adapt or use parts of their codes:                            
  Ed Valeev, F. Pavosevic, A. Kumar             : LibInt (2-el integral package), F12 methods 
  Garnet Chan, S. Sharma, J. Yang, R. Olivares  : DMRG                   
  Ulf Ekstrom                                   : XCFun DFT Library      
  Mihaly Kallay                                 : mrcc  (arbitrary order and MRCC methods)
  Frank Weinhold                                : gennbo (NPA and NBO analysis)           
  Simon Mueller                                 : openCOSMO-RS                            
  Christopher J. Cramer and Donald G. Truhlar   : smd solvation model                     
  S Lehtola, MJT Oliveira, MAL Marques          : LibXC Library                           
  Liviu Ungur et al                             : ANISO software                          


 Your calculation uses the libint2 library for the computation of 2-el integrals
 For citations please refer to: http://libint.valeyev.net

 Your ORCA version has been built with support for libXC version: 7.0.0
 For citations please refer to: https://libxc.gitlab.io

 This ORCA versions uses:
   CBLAS   interface :  Fast vector & matrix operations
   LAPACKE interface :  Fast linear algebra routines
   SCALAPACK package :  Parallel linear algebra routines
   Shared memory     :  Shared parallel matrices
   BLAS/LAPACK       :  OpenBLAS 0.3.29  USE64BITINT DYNAMIC_ARCH NO_AFFINITY Zen SINGLE_THREADED
        Core in use  :  Zen
   Copyright (c) 2011-2014, The OpenBLAS Project


  ***********************************
  * Starting time: Wed Sep 10 13:35:58 2025
  * Host name:     wyk-Server
  * Process ID:    2296575
  * Working dir.:  /home/wyk/Documents/code/openQDC/MGMR/singlepointcalc/77/react
  ***********************************

Your calculation utilizes the atom-pairwise dispersion correction
with the Becke-Johnson damping scheme (D3BJ)


Warning: RI is on but no J-basis has been assigned. Assigning Def2/J (nothing to worry about!)
================================================================================

----- Orbital basis set information -----
Your calculation utilizes the basis: def2-SVP
   F. Weigend and R. Ahlrichs, Phys. Chem. Chem. Phys. 7, 3297 (2005).

----- AuxJ basis set information -----
Your calculation utilizes the auxiliary basis: def2/J
   H-Rn: F. Weigend, Phys. Chem. Chem. Phys. 8, 1057 (2006).
   Fr-Lr: K. Eichkorn, F. Weigend, O. Treutler, R. Ahlrichs; Theor. Chem. Acc. 97, 119 (1997).

================================================================================
                                        WARNINGS
                       Please study these warnings very carefully!
================================================================================


================================================================================
                                       INPUT FILE
================================================================================
NAME = orca.inp
|  1> ! B3LYP def2-SVP d3 EnGrad 
|  2> %pal nprocs 6 end 
|  3> *xyz 0 1 
|  4> C   -0.90853118113881 -1.53322709512357 0.34064497907012
|  5> C   -1.47201039397534 -0.65303684572618 -0.50165367625255
|  6> C   -1.72181284883758 0.76937688707353 -0.22652536497361
|  7> C   -1.02139102986697 1.54272259272105 0.61759142833093
|  8> C   2.62936934040652 -0.48963687813045 0.28612607869467
|  9> C   2.20315912160738 0.39787818067303 -0.61301337141298
| 10> H   -1.80104940381621 -1.01066600577425 -1.48529907638106
| 11> H   -0.60829007471652 -1.24710637014229 1.35295089679119
| 12> H   -0.74288813946809 -2.57302550792744 0.04697041105363
| 13> H   3.6119190732372 -0.40668716013982 0.76215054608312
| 14> H   2.00678166897602 -1.33963121924209 0.58318900007283
| 15> H   1.21653288663013 0.30887132198079 -1.07628936700051
| 16> H   2.81903399174055 1.25114205917203 -0.91581761606533
| 17> H   -1.28577067837423 2.59190591707696 0.77400053406335
| 18> H   -0.15090106633416 1.16147006032948 1.15920700239574
| 19> H   -2.54714526606992 1.22248006317917 -0.78980540446951
| 20> *
| 21> 
| 22>                          ****END OF INPUT****
================================================================================

                     *******************************
                     * Energy+Gradient Calculation *
                     *******************************

---------------------------------
CARTESIAN COORDINATES (ANGSTROEM)
---------------------------------
  C     -0.908531   -1.533227    0.340645
  C     -1.472010   -0.653037   -0.501654
  C     -1.721813    0.769377   -0.226525
  C     -1.021391    1.542723    0.617591
  C      2.629369   -0.489637    0.286126
  C      2.203159    0.397878   -0.613013
  H     -1.801049   -1.010666   -1.485299
  H     -0.608290   -1.247106    1.352951
  H     -0.742888   -2.573026    0.046970
  H      3.611919   -0.406687    0.762151
  H      2.006782   -1.339631    0.583189
  H      1.216533    0.308871   -1.076289
  H      2.819034    1.251142   -0.915818
  H     -1.285771    2.591906    0.774001
  H     -0.150901    1.161470    1.159207
  H     -2.547145    1.222480   -0.789805

----------------------------
CARTESIAN COORDINATES (A.U.)
----------------------------
  NO LB      ZA    FRAG     MASS         X           Y           Z
   0 C     6.0000    0    12.011   -1.716875   -2.897379    0.643726
   1 C     6.0000    0    12.011   -2.781697   -1.234061   -0.947988
   2 C     6.0000    0    12.011   -3.253755    1.453912   -0.428071
   3 C     6.0000    0    12.011   -1.930149    2.915323    1.167079
   4 C     6.0000    0    12.011    4.968788   -0.925280    0.540700
   5 C     6.0000    0    12.011    4.163367    0.751881   -1.158427
   6 H     1.0000    0     1.008   -3.403490   -1.909882   -2.806808
   7 H     1.0000    0     1.008   -1.149502   -2.356689    2.556707
   8 H     1.0000    0     1.008   -1.403855   -4.862314    0.088761
   9 H     1.0000    0     1.008    6.825538   -0.768527    1.440256
  10 H     1.0000    0     1.008    3.792268   -2.531536    1.102067
  11 H     1.0000    0     1.008    2.298914    0.583682   -2.033892
  12 H     1.0000    0     1.008    5.327202    2.364316   -1.730644
  13 H     1.0000    0     1.008   -2.429754    4.897992    1.462649
  14 H     1.0000    0     1.008   -0.285162    2.194860    2.190584
  15 H     1.0000    0     1.008   -4.813407    2.310153   -1.492516

--------------------------------
INTERNAL COORDINATES (ANGSTROEM)
--------------------------------
 C      0   0   0     0.000000000000     0.00000000     0.00000000
 C      1   0   0     1.342278183981     0.00000000     0.00000000
 C      2   1   0     1.470155665697   126.03957105     0.00000000
 C      3   2   1     1.342083255865   125.91206113    27.48331383
 C      1   2   3     3.689009752204   101.99459006   286.92424013
 C      5   1   2     1.333337872016    83.78299604   357.29981786
 H      2   1   3     1.097143363152   118.34295436   181.20782915
 H      1   2   3     1.093971234678   121.62633470     1.99712102
 H      1   2   3     1.093097940911   121.25134648   181.12963578
 H      5   1   2     1.094935581097   151.11689701   152.18087197
 H      5   1   2     1.094692727571    39.72656612   196.13830509
 H      6   5   1     1.093607880608   121.32432114   346.48073590
 H      6   5   1     1.095012106140   121.69335446   166.02095251
 H      4   3   2     1.093227357418   121.11700787   180.91223093
 H      4   3   2     1.093825260330   121.73038119     2.38511496
 H      3   2   1     1.097160193420   115.55050962   206.12463053

---------------------------
INTERNAL COORDINATES (A.U.)
---------------------------
 C      0   0   0     0.000000000000     0.00000000     0.00000000
 C      1   0   0     2.536538163261     0.00000000     0.00000000
 C      2   1   0     2.778191582399   126.03957105     0.00000000
 C      3   2   1     2.536169802506   125.91206113    27.48331383
 C      1   2   3     6.971218137029   101.99459006   286.92424013
 C      5   1   2     2.519643422095    83.78299604   357.29981786
 H      2   1   3     2.073300486006   118.34295436   181.20782915
 H      1   2   3     2.067306031929   121.62633470     1.99712102
 H      1   2   3     2.065655745874   121.25134648   181.12963578
 H      5   1   2     2.069128382560   151.11689701   152.18087197
 H      5   1   2     2.068669455904    39.72656612   196.13830509
 H      6   5   1     2.066619392247   121.32432114   346.48073590
 H      6   5   1     2.069272993932   121.69335446   166.02095251
 H      4   3   2     2.065900307631   121.11700787   180.91223093
 H      4   3   2     2.067030180389   121.73038119     2.38511496
 H      3   2   1     2.073332290604   115.55050962   206.12463053

---------------------
BASIS SET INFORMATION
---------------------
There are 2 groups of distinct atoms

 Group   1 Type C   : 7s4p1d contracted to 3s2p1d pattern {511/31/1}
 Group   2 Type H   : 4s1p contracted to 2s1p pattern {31/1}

Atom   0C    basis set group =>   1
Atom   1C    basis set group =>   1
Atom   2C    basis set group =>   1
Atom   3C    basis set group =>   1
Atom   4C    basis set group =>   1
Atom   5C    basis set group =>   1
Atom   6H    basis set group =>   2
Atom   7H    basis set group =>   2
Atom   8H    basis set group =>   2
Atom   9H    basis set group =>   2
Atom  10H    basis set group =>   2
Atom  11H    basis set group =>   2
Atom  12H    basis set group =>   2
Atom  13H    basis set group =>   2
Atom  14H    basis set group =>   2
Atom  15H    basis set group =>   2
---------------------------------
AUXILIARY/J BASIS SET INFORMATION
---------------------------------
There are 2 groups of distinct atoms

 Group   1 Type C   : 12s5p4d2f1g contracted to 6s4p3d1f1g pattern {711111/2111/211/2/1}
 Group   2 Type H   : 5s2p1d contracted to 3s1p1d pattern {311/2/1}

Atom   0C    basis set group =>   1
Atom   1C    basis set group =>   1
Atom   2C    basis set group =>   1
Atom   3C    basis set group =>   1
Atom   4C    basis set group =>   1
Atom   5C    basis set group =>   1
Atom   6H    basis set group =>   2
Atom   7H    basis set group =>   2
Atom   8H    basis set group =>   2
Atom   9H    basis set group =>   2
Atom  10H    basis set group =>   2
Atom  11H    basis set group =>   2
Atom  12H    basis set group =>   2
Atom  13H    basis set group =>   2
Atom  14H    basis set group =>   2
Atom  15H    basis set group =>   2


           ************************************************************
           *        Program running with 6 parallel MPI-processes     *
           *              working on a common directory               *
           ************************************************************
------------------------------------------------------------------------------
                             ORCA STARTUP CALCULATIONS
                           -- RI-GTO INTEGRALS CHOSEN --
------------------------------------------------------------------------------
------------------------------------------------------------------------------
                   ___                                                        
                  /   \      - P O W E R E D   B Y -                         
                 /     \                                                     
                 |  |  |   _    _      __       _____    __    __             
                 |  |  |  | |  | |    /  \     |  _  \  |  |  /  |          
                  \  \/   | |  | |   /    \    | | | |  |  | /  /          
                 / \  \   | |__| |  /  /\  \   | |_| |  |  |/  /          
                |  |  |   |  __  | /  /__\  \  |    /   |      \           
                |  |  |   | |  | | |   __   |  |    \   |  |\   \          
                \     /   | |  | | |  |  |  |  | |\  \  |  | \   \       
                 \___/    |_|  |_| |__|  |__|  |_| \__\ |__|  \__/        
                                                                              
                      - O R C A' S   B I G   F R I E N D -                    
                                      &                                       
                       - I N T E G R A L  F E E D E R -                       
                                                                              
 v1 FN, 2020, v2 2021, v3 2022-2024                                           
------------------------------------------------------------------------------


----------------------
SHARK INTEGRAL PACKAGE
----------------------

Number of atoms                             ...     16
Number of basis functions                   ...    134
Number of shells                            ...     66
Maximum angular momentum                    ...      2
Integral batch strategy                     ... SHARK/LIBINT Hybrid
RI-J (if used) integral strategy            ... SPLIT-RIJ (Revised 2003 algorithm where possible)
Printlevel                                  ...      1
Contraction scheme used                     ... SEGMENTED contraction
Prescreening option                         ... SCHWARTZ
   Thresh                                   ... 2.500e-11
   Tcut                                     ... 2.500e-12
   Tpresel                                  ... 2.500e-12 
Coulomb Range Separation                    ... NOT USED
Exchange Range Separation                   ... NOT USED
Multipole approximations                    ... NOT USED
Finite Nucleus Model                        ... NOT USED
CABS basis                                  ... NOT available
Auxiliary Coulomb fitting basis             ... AVAILABLE
   # of basis functions in Aux-J            ...    404
   # of shells in Aux-J                     ...    140
   Maximum angular momentum in Aux-J        ...      4
Auxiliary J/K fitting basis                 ... NOT available
Auxiliary Correlation fitting basis         ... NOT available
Auxiliary 'external' fitting basis          ... NOT available

Checking pre-screening integrals            ... done (  0.0 sec) Dimension = 66
   => SHARK Basis and OBASIS are compatible. Storing Pre-screening
Shell pair information
Shell pair cut-off parameter TPreSel        ...   2.5e-12
Total number of shell pairs                 ...      2211
Shell pairs after pre-screening             ...      2094
Total number of primitive shell pairs       ...      7611
Primitive shell pairs kept                  ...      5380
          la=0 lb=0:    710 shell pairs
          la=1 lb=0:    791 shell pairs
          la=1 lb=1:    238 shell pairs
          la=2 lb=0:    210 shell pairs
          la=2 lb=1:    124 shell pairs
          la=2 lb=2:     21 shell pairs

Checking whether 4 symmetric matrices of dimension 134 fit in memory
:Max Core in MB      =   4096.00
 MB in use           =      5.95
 MB left             =   4090.05
 MB needed           =      0.28
 Data fit in memory  = YES
Calculating RI/J V-Matrix + Cholesky decomp.... done (  0.0 sec)
Calculating Nuclear repulsion               ... done (  0.0 sec) ENN=    201.269760490990 Eh

Diagonalization of the overlap matrix:
Smallest eigenvalue                        ... 1.680e-03
Time for diagonalization                   ...    0.003 sec
Threshold for overlap eigenvalues          ... 1.000e-07
Number of eigenvalues below threshold      ... 0
Time for construction of square roots      ...    0.001 sec
Total time needed                          ...    0.005 sec

-------------------
DFT GRID GENERATION
-------------------

General Integration Accuracy     IntAcc      ... 4.388
Radial Grid Type                 RadialGrid  ... OptM3 with GC (2021)
Angular Grid (max. ang.)         AngularGrid ... 4 (Lebedev-302)
Angular grid pruning method      GridPruning ... 4 (adaptive)
Weight generation scheme         WeightScheme... mBecke (2022)
Basis function cutoff            BFCut       ... 1.0000e-11
Integration weight cutoff        WCut        ... 1.0000e-14
Partially contracted basis set               ... off
Rotationally invariant grid construction     ... off
Angular grids for H and He will be reduced by one unit

Total number of grid points                  ...    68694
Total number of batches                      ...     1082
Average number of points per batch           ...       63
Average number of grid points per atom       ...     4293

--------------------
COSX GRID GENERATION
--------------------

GRIDX 1
-------
General Integration Accuracy     IntAcc      ... 3.816
Radial Grid Type                 RadialGrid  ... OptM3 with GC (2021)
Angular Grid (max. ang.)         AngularGrid ... 1 (Lebedev-50)
Angular grid pruning method      GridPruning ... 4 (adaptive)
Weight generation scheme         WeightScheme... mBecke (2022)
Basis function cutoff            BFCut       ... 1.0000e-11
Integration weight cutoff        WCut        ... 1.0000e-14
Partially contracted basis set               ... on
Rotationally invariant grid construction     ... off
Angular grids for H and He will be reduced by one unit

Total number of grid points                  ...     8830
Total number of batches                      ...       80
Average number of points per batch           ...      110
Average number of grid points per atom       ...      552
UseSFitting                                  ... on

GRIDX 2
-------
General Integration Accuracy     IntAcc      ... 4.020
Radial Grid Type                 RadialGrid  ... OptM3 with GC (2021)
Angular Grid (max. ang.)         AngularGrid ... 2 (Lebedev-110)
Angular grid pruning method      GridPruning ... 4 (adaptive)
Weight generation scheme         WeightScheme... mBecke (2022)
Basis function cutoff            BFCut       ... 1.0000e-11
Integration weight cutoff        WCut        ... 1.0000e-14
Partially contracted basis set               ... on
Rotationally invariant grid construction     ... off
Angular grids for H and He will be reduced by one unit

Total number of grid points                  ...    18553
Total number of batches                      ...      151
Average number of points per batch           ...      122
Average number of grid points per atom       ...     1160
UseSFitting                                  ... on

GRIDX 3
-------
General Integration Accuracy     IntAcc      ... 4.338
Radial Grid Type                 RadialGrid  ... OptM3 with GC (2021)
Angular Grid (max. ang.)         AngularGrid ... 3 (Lebedev-194)
Angular grid pruning method      GridPruning ... 4 (adaptive)
Weight generation scheme         WeightScheme... mBecke (2022)
Basis function cutoff            BFCut       ... 1.0000e-11
Integration weight cutoff        WCut        ... 1.0000e-14
Partially contracted basis set               ... on
Rotationally invariant grid construction     ... off
Angular grids for H and He will be reduced by one unit

Total number of grid points                  ...    40619
Total number of batches                      ...      326
Average number of points per batch           ...      124
Average number of grid points per atom       ...     2539
UseSFitting                                  ... on
Grids setup in   0.9 sec
Initializing property integral containers    ... done (  0.0 sec)

SHARK setup successfully completed in   1.0 seconds

Maximum memory used throughout the entire STARTUP-calculation: 18.2 MB


           ************************************************************
           *        Program running with 6 parallel MPI-processes     *
           *              working on a common directory               *
           ************************************************************
-------------------------------------------------------------------------------
                                 ORCA GUESS
                   Start orbitals & Density for SCF / CASSCF
-------------------------------------------------------------------------------

------------
SCF SETTINGS
------------
Hamiltonian:
 Density Functional     Method          .... DFT(GTOs)
 Exchange Functional    Exchange        .... B88
   X-Alpha parameter    XAlpha          ....  0.666667
   Becke's b parameter  XBeta           ....  0.004200
 Correlation Functional Correlation     .... LYP
 LDA part of GGA corr.  LDAOpt          .... VWN-5
 Gradients option       PostSCFGGA      .... off
 Hybrid DFT is turned on
   Fraction HF Exchange ScalHFX         ....  0.200000
   Scaling of DF-GGA-X  ScalDFX         ....  0.720000
   Scaling of DF-GGA-C  ScalDFC         ....  0.810000
   Scaling of DF-LDA-C  ScalLDAC        ....  1.000000
   Perturbative correction              ....  0.000000
   NL short-range parameter             ....  4.800000
 RI-approximation to the Coulomb term is turned on
   Number of AuxJ basis functions       .... 404
   RIJ-COSX (HFX calculated with COS-X)).... on


General Settings:
 Integral files         IntName         .... orca
 Hartree-Fock type      HFTyp           .... RHF
 Total Charge           Charge          ....    0
 Multiplicity           Mult            ....    1
 Number of Electrons    NEL             ....   46
 Basis Dimension        Dim             ....  134
 Nuclear Repulsion      ENuc            ....    201.2697604910 Eh

Convergence Acceleration:
 AO-DIIS                CNVDIIS         .... on
   Start iteration      DIISMaxIt       ....    12
   Startup error        DIISStart       ....  0.200000
   # of expansion vecs  DIISMaxEq       ....     5
   Bias factor          DIISBfac        ....   1.050
   Max. coefficient     DIISMaxC        ....  10.000
 MO-DIIS                CNVKDIIS        .... off
 Trust-Rad. Augm. Hess. CNVTRAH         .... auto
   Auto Start mean grad. ratio tolernc. ....  1.125000
   Auto Start start iteration           ....    50
   Auto Start num. interpolation iter.  ....    10
   Max. Number of Micro iterations      ....    24
   Max. Number of Macro iterations      .... Maxiter - #DIIS iter
   Number of Davidson start vectors     ....     2
   Converg. threshold    (grad. norm)   ....   1.000e-05
   Grad. Scal. Fac. for Micro threshold ....   0.100
   Minimum threshold for Micro iter.    ....   1.000e-02
   NR start threshold (gradient norm)   ....   1.000e-04
   Initial trust radius                 ....   0.400
   Minimum AH scaling param. (alpha)    ....   1.000
   Maximum AH scaling param. (alpha)    .... 1000.000
   Quad. conv. algorithm                .... NR
   White noise on init. David. guess    .... on
   Maximum white noise                  ....   0.010
   Pseudo random numbers                .... off
   Inactive MOs                         .... canonical
   Orbital update algorithm             .... Taylor
   Preconditioner                       .... Diag
   Full preconditioner red. dimension   ....   250
 SOSCF                 CNVSOSCF           .... on
   Start iteration     SOSCFMaxIt         ....   150
   Startup grad/error  SOSCFStart         ....  0.003300
   Hessian update      SOSCFHessUp        .... L-BFGS
   Autom. constraints  SOSCFAutoConstrain .... off
 Level Shifting         CNVShift        .... on
   Level shift para.    LevelShift      ....    0.2500
   Turn off err/grad.   ShiftErr        ....    0.0010
 Zerner damping         CNVZerner       .... off
 Static damping         CNVDamp         .... on
   Fraction old density DampFac         ....    0.7000
   Max. Damping (<1)    DampMax         ....    0.9800
   Min. Damping (>=0)   DampMin         ....    0.0000
   Turn off err/grad.   DampErr         ....    0.1000

SCF Procedure:
 Maximum # iterations   MaxIter         ....   125
 SCF integral mode      SCFMode         .... Direct
   Integral package                     .... SHARK and LIBINT hybrid scheme
 Reset frequency        DirectResetFreq ....    20
 Integral Threshold     Thresh          ....  2.500e-11 Eh
 Primitive CutOff       TCut            ....  2.500e-12 Eh

Convergence Tolerance:
 Convergence Check Mode ConvCheckMode   .... Total+1el-Energy
 Convergence forced     ConvForced      .... 0
 Energy Change          TolE            ....  1.000e-08 Eh
 1-El. energy change                    ....  1.000e-05 Eh
 Orbital Gradient       TolG            ....  1.000e-05
 Orbital Rotation angle TolX            ....  1.000e-05
 DIIS Error             TolErr          ....  5.000e-07

------------------------------
INITIAL GUESS: MODEL POTENTIAL
------------------------------
Loading Hartree-Fock densities                     ... done
Calculating cut-offs                               ... done
Initializing the effective Hamiltonian             ... done
Setting up the integral package (SHARK)            ... done
Starting the Coulomb interaction                   ... done (   0.0 sec)
Making the grid                                    ... done (   0.1 sec)
Mapping shells                                     ... done
Starting the XC term evaluation                    ... done (   0.0 sec)
  promolecular density results
     # of electrons  =     45.992611080
     EX              =    -33.686053286
     EC              =     -1.447763436
     EX+EC           =    -35.133816722
Transforming the Hamiltonian                       ... done (   0.0 sec)
Diagonalizing the Hamiltonian                      ... done (   0.0 sec)
Back transforming the eigenvectors                 ... done (   0.0 sec)
Now organizing SCF variables                       ... done
                      ------------------
                      INITIAL GUESS DONE (   0.2 sec)
                      ------------------
             **** ENERGY FILE WAS UPDATED (orca.en.tmp) ****
Finished Guess after   0.3 sec
Maximum memory used throughout the entire GUESS-calculation: 8.5 MB


           ************************************************************
           *        Program running with 6 parallel MPI-processes     *
           *              working on a common directory               *
           ************************************************************

-------------------------------------------------------------------------------------------
                                      ORCA LEAN-SCF
                              memory conserving SCF solver
-------------------------------------------------------------------------------------------

----------------------------------------D-I-I-S--------------------------------------------
Iteration    Energy (Eh)           Delta-E    RMSDP     MaxDP     DIISErr   Damp  Time(sec)
-------------------------------------------------------------------------------------------
               ***  Starting incremental Fock matrix formation  ***
    1    -234.0554020882133841     0.00e+00  7.56e-03  6.16e-02  1.42e-01  0.700   0.8
    2    -234.1383891008172782    -8.30e-02  5.57e-03  3.99e-02  7.88e-02  0.700   0.4
                               ***Turning on AO-DIIS***
    3    -234.1750327807291114    -3.66e-02  2.32e-03  1.26e-02  3.35e-02  0.700   0.4
    4    -234.1957400772157030    -2.07e-02  4.06e-03  1.91e-02  1.79e-02  0.000   0.4
    5    -234.2395518095175362    -4.38e-02  6.27e-04  3.12e-03  4.79e-03  0.000   0.4
                              *** Initializing SOSCF ***
---------------------------------------S-O-S-C-F--------------------------------------
Iteration    Energy (Eh)           Delta-E    RMSDP     MaxDP     MaxGrad    Time(sec)
--------------------------------------------------------------------------------------
    6    -234.2397872269196455    -2.35e-04  2.32e-04  1.20e-03  1.34e-03     0.4
               *** Restarting incremental Fock matrix formation ***
    7    -234.2397304923046022     5.67e-05  1.45e-04  7.09e-04  2.37e-04     0.7
    8    -234.2397308944569545    -4.02e-07  4.25e-05  4.62e-04  2.56e-04     0.6
    9    -234.2397319831618461    -1.09e-06  3.22e-05  2.25e-04  1.07e-04     0.5
   10    -234.2397319291247868     5.40e-08  1.67e-05  1.16e-04  8.84e-05     0.5
   11    -234.2397320849594280    -1.56e-07  2.91e-06  2.59e-05  5.04e-06     0.5
   12    -234.2397320866219275    -1.66e-09  1.57e-06  1.97e-05  9.37e-06     0.5
                 **** Energy Check signals convergence ****

               *****************************************************
               *                     SUCCESS                       *
               *           SCF CONVERGED AFTER  12 CYCLES          *
               *****************************************************

Recomputing exchange energy using gridx3       ... done (    0.917 sec)
Old exchange energy                            :     -6.888503470 Eh
New exchange energy                            :     -6.888509237 Eh
Exchange energy change after final integration :     -0.000005767 Eh
Total energy after final integration           :   -234.239737855 Eh
             **** ENERGY FILE WAS UPDATED (orca.en.tmp) ****

----------------
TOTAL SCF ENERGY
----------------

Total Energy       :       -234.23973785465327 Eh           -6373.98731 eV

Components:
Nuclear Repulsion  :        201.26976049098965 Eh            5476.82862 eV
Electronic Energy  :       -435.50949257814676 Eh          -11850.81578 eV
One Electron Energy:       -711.83082611547968 Eh          -19369.90153 eV
Two Electron Energy:        276.32133353733292 Eh            7519.08575 eV

Virial components:
Potential Energy   :       -465.62484114395176 Eh          -12670.29607 eV
Kinetic Energy     :        231.38510328929848 Eh            6296.30876 eV
Virial Ratio       :          2.01233715794480

DFT components:
N(Alpha)           :       23.000000231952 electrons
N(Beta)            :       23.000000231952 electrons
N(Total)           :       46.000000463904 electrons
E(X)               :      -27.313002763858 Eh       
E(C)               :       -1.728855749062 Eh       
E(XC)              :      -29.041858512920 Eh       

---------------
SCF CONVERGENCE
---------------

  Last Energy change         ...    1.6625e-09  Tolerance :   1.0000e-08
  Last MAX-Density change    ...    1.9697e-05  Tolerance :   1.0000e-07
  Last RMS-Density change    ...    1.5668e-06  Tolerance :   5.0000e-09
  Last DIIS Error            ...    1.3405e-03  Tolerance :   5.0000e-07
  Last Orbital Gradient      ...    9.3697e-06  Tolerance :   1.0000e-05
  Last Orbital Rotation      ...    1.3640e-05  Tolerance :   1.0000e-05


----------------
ORBITAL ENERGIES
----------------

  NO   OCC          E(Eh)            E(eV) 
   0   2.0000     -10.194002      -277.3929 
   1   2.0000     -10.192130      -277.3420 
   2   2.0000     -10.186816      -277.1973 
   3   2.0000     -10.184687      -277.1394 
   4   2.0000     -10.181876      -277.0629 
   5   2.0000     -10.180678      -277.0303 
   6   2.0000      -0.794423       -21.6173 
   7   2.0000      -0.743262       -20.2252 
   8   2.0000      -0.718231       -19.5441 
   9   2.0000      -0.610794       -16.6206 
  10   2.0000      -0.563633       -15.3372 
  11   2.0000      -0.521345       -14.1865 
  12   2.0000      -0.487519       -13.2661 
  13   2.0000      -0.459468       -12.5028 
  14   2.0000      -0.436643       -11.8817 
  15   2.0000      -0.421264       -11.4632 
  16   2.0000      -0.412130       -11.2146 
  17   2.0000      -0.365745        -9.9524 
  18   2.0000      -0.348317        -9.4782 
  19   2.0000      -0.347302        -9.4506 
  20   2.0000      -0.313735        -8.5372 
  21   2.0000      -0.267753        -7.2859 
  22   2.0000      -0.237400        -6.4600 
  23   0.0000      -0.035341        -0.9617 
  24   0.0000       0.012462         0.3391 
  25   0.0000       0.063275         1.7218 
  26   0.0000       0.074147         2.0176 
  27   0.0000       0.087140         2.3712 
  28   0.0000       0.098398         2.6776 
  29   0.0000       0.104860         2.8534 
  30   0.0000       0.127246         3.4625 
  31   0.0000       0.128656         3.5009 
  32   0.0000       0.149549         4.0694 
  33   0.0000       0.158138         4.3031 
*Only the first 10 virtual orbitals were printed.

                    ********************************
                    * MULLIKEN POPULATION ANALYSIS *
                    ********************************

-----------------------
MULLIKEN ATOMIC CHARGES
-----------------------
   0 C :   -0.019313
   1 C :   -0.026160
   2 C :   -0.024112
   3 C :   -0.026062
   4 C :   -0.065878
   5 C :   -0.055080
   6 H :    0.001051
   7 H :    0.025057
   8 H :    0.024476
   9 H :    0.024115
  10 H :    0.025005
  11 H :    0.041802
  12 H :    0.023668
  13 H :    0.023396
  14 H :    0.028528
  15 H :   -0.000493
Sum of atomic charges:    0.0000000

--------------------------------
MULLIKEN REDUCED ORBITAL CHARGES
--------------------------------
  0 C s       :     3.107176  s :     3.107176
      pz      :     0.959202  p :     2.885791
      px      :     0.977947
      py      :     0.948642
      dz2     :     0.007719  d :     0.026346
      dxz     :     0.003418
      dyz     :     0.006925
      dx2y2   :     0.004970
      dxy     :     0.003314

  1 C s       :     3.125607  s :     3.125607
      pz      :     0.936350  p :     2.865183
      px      :     0.978401
      py      :     0.950432
      dz2     :     0.008445  d :     0.035370
      dxz     :     0.003679
      dyz     :     0.009533
      dx2y2   :     0.006951
      dxy     :     0.006762

  2 C s       :     3.126917  s :     3.126917
      pz      :     0.964826  p :     2.861947
      px      :     0.951630
      py      :     0.945492
      dz2     :     0.005485  d :     0.035247
      dxz     :     0.004733
      dyz     :     0.008009
      dx2y2   :     0.008633
      dxy     :     0.008387

  3 C s       :     3.115078  s :     3.115078
      pz      :     0.964279  p :     2.884605
      px      :     0.974115
      py      :     0.946212
      dz2     :     0.004810  d :     0.026378
      dxz     :     0.004522
      dyz     :     0.004514
      dx2y2   :     0.006966
      dxy     :     0.005566

  4 C s       :     3.123840  s :     3.123840
      pz      :     0.985801  p :     2.914741
      px      :     0.949956
      py      :     0.978984
      dz2     :     0.005108  d :     0.027297
      dxz     :     0.005456
      dyz     :     0.004342
      dx2y2   :     0.006215
      dxy     :     0.006176

  5 C s       :     3.125574  s :     3.125574
      pz      :     0.973082  p :     2.902196
      px      :     0.963842
      py      :     0.965272
      dz2     :     0.005235  d :     0.027310
      dxz     :     0.005294
      dyz     :     0.004361
      dx2y2   :     0.006198
      dxy     :     0.006223

  6 H s       :     0.976350  s :     0.976350
      pz      :     0.012659  p :     0.022599
      px      :     0.005175
      py      :     0.004765

  7 H s       :     0.951453  s :     0.951453
      pz      :     0.013170  p :     0.023490
      px      :     0.005370
      py      :     0.004950

  8 H s       :     0.951941  s :     0.951941
      pz      :     0.004914  p :     0.023583
      px      :     0.004992
      py      :     0.013677

  9 H s       :     0.952750  s :     0.952750
      pz      :     0.006241  p :     0.023135
      px      :     0.012632
      py      :     0.004262

 10 H s       :     0.951729  s :     0.951729
      pz      :     0.005039  p :     0.023266
      px      :     0.007840
      py      :     0.010387

 11 H s       :     0.934504  s :     0.934504
      pz      :     0.006022  p :     0.023694
      px      :     0.013356
      py      :     0.004316

 12 H s       :     0.953128  s :     0.953128
      pz      :     0.005115  p :     0.023204
      px      :     0.007560
      py      :     0.010529

 13 H s       :     0.953136  s :     0.953136
      pz      :     0.004653  p :     0.023468
      px      :     0.004992
      py      :     0.013823

 14 H s       :     0.947802  s :     0.947802
      pz      :     0.006779  p :     0.023670
      px      :     0.011384
      py      :     0.005507

 15 H s       :     0.977927  s :     0.977927
      pz      :     0.006783  p :     0.022566
      px      :     0.010318
      py      :     0.005465



                     *******************************
                     * LOEWDIN POPULATION ANALYSIS *
                     *******************************

----------------------
LOEWDIN ATOMIC CHARGES
----------------------
   0 C :   -0.039558
   1 C :   -0.035275
   2 C :   -0.038035
   3 C :   -0.036573
   4 C :   -0.053818
   5 C :   -0.043001
   6 H :    0.028066
   7 H :    0.023123
   8 H :    0.025491
   9 H :    0.022056
  10 H :    0.021305
  11 H :    0.026902
  12 H :    0.022669
  13 H :    0.025245
  14 H :    0.023942
  15 H :    0.027461

-------------------------------
LOEWDIN REDUCED ORBITAL CHARGES
-------------------------------
  0 C s       :     2.888105  s :     2.888105
      pz      :     1.052931  p :     3.083236
      px      :     0.983227
      py      :     1.047077
      dz2     :     0.020285  d :     0.068217
      dxz     :     0.008639
      dyz     :     0.018611
      dx2y2   :     0.012379
      dxy     :     0.008304

  1 C s       :     2.874394  s :     2.874394
      pz      :     1.046728  p :     3.070570
      px      :     0.976092
      py      :     1.047749
      dz2     :     0.022102  d :     0.090311
      dxz     :     0.009225
      dyz     :     0.025526
      dx2y2   :     0.017508
      dxy     :     0.015950

  2 C s       :     2.872938  s :     2.872938
      pz      :     1.012315  p :     3.074891
      px      :     1.022471
      py      :     1.040105
      dz2     :     0.012256  d :     0.090206
      dxz     :     0.012839
      dyz     :     0.020766
      dx2y2   :     0.023043
      dxy     :     0.021302

  3 C s       :     2.888269  s :     2.888269
      pz      :     1.004663  p :     3.080116
      px      :     1.031861
      py      :     1.043592
      dz2     :     0.010191  d :     0.068187
      dxz     :     0.012329
      dyz     :     0.012573
      dx2y2   :     0.018936
      dxy     :     0.014158

  4 C s       :     2.891054  s :     2.891054
      pz      :     1.021119  p :     3.092920
      px      :     1.032340
      py      :     1.039461
      dz2     :     0.010633  d :     0.069845
      dxz     :     0.014582
      dyz     :     0.012580
      dx2y2   :     0.016356
      dxy     :     0.015694

  5 C s       :     2.891769  s :     2.891769
      pz      :     1.013062  p :     3.081502
      px      :     1.036774
      py      :     1.031666
      dz2     :     0.010955  d :     0.069730
      dxz     :     0.014169
      dyz     :     0.012627
      dx2y2   :     0.016256
      dxy     :     0.015722

  6 H s       :     0.906529  s :     0.906529
      pz      :     0.035467  p :     0.065405
      px      :     0.015328
      py      :     0.014610

  7 H s       :     0.908746  s :     0.908746
      pz      :     0.038061  p :     0.068131
      px      :     0.016107
      py      :     0.013963

  8 H s       :     0.906910  s :     0.906910
      pz      :     0.014128  p :     0.067599
      px      :     0.014600
      py      :     0.038871

  9 H s       :     0.911788  s :     0.911788
      pz      :     0.017735  p :     0.066156
      px      :     0.036507
      py      :     0.011914

 10 H s       :     0.911658  s :     0.911658
      pz      :     0.014236  p :     0.067036
      px      :     0.022720
      py      :     0.030081

 11 H s       :     0.904931  s :     0.904931
      pz      :     0.017469  p :     0.068168
      px      :     0.038730
      py      :     0.011969

 12 H s       :     0.911392  s :     0.911392
      pz      :     0.014149  p :     0.065938
      px      :     0.021902
      py      :     0.029887

 13 H s       :     0.907385  s :     0.907385
      pz      :     0.013189  p :     0.067371
      px      :     0.014658
      py      :     0.039524

 14 H s       :     0.907155  s :     0.907155
      pz      :     0.020244  p :     0.068903
      px      :     0.032707
      py      :     0.015953

 15 H s       :     0.907126  s :     0.907126
      pz      :     0.019623  p :     0.065413
      px      :     0.029082
      py      :     0.016708



                      *****************************
                      * MAYER POPULATION ANALYSIS *
                      *****************************

  NA   - Mulliken gross atomic population
  ZA   - Total nuclear charge
  QA   - Mulliken gross atomic charge
  VA   - Mayer's total valence
  BVA  - Mayer's bonded valence
  FA   - Mayer's free valence

  ATOM       NA         ZA         QA         VA         BVA        FA
  0 C      6.0193     6.0000    -0.0193     3.9524     3.9524     0.0000
  1 C      6.0262     6.0000    -0.0262     4.0402     4.0402    -0.0000
  2 C      6.0241     6.0000    -0.0241     4.0234     4.0234     0.0000
  3 C      6.0261     6.0000    -0.0261     3.9484     3.9484     0.0000
  4 C      6.0659     6.0000    -0.0659     4.0164     4.0164     0.0000
  5 C      6.0551     6.0000    -0.0551     4.0183     4.0183    -0.0000
  6 H      0.9989     1.0000     0.0011     0.9770     0.9770     0.0000
  7 H      0.9749     1.0000     0.0251     0.9859     0.9859     0.0000
  8 H      0.9755     1.0000     0.0245     0.9742     0.9742     0.0000
  9 H      0.9759     1.0000     0.0241     0.9733     0.9733    -0.0000
 10 H      0.9750     1.0000     0.0250     0.9892     0.9892    -0.0000
 11 H      0.9582     1.0000     0.0418     0.9898     0.9898     0.0000
 12 H      0.9763     1.0000     0.0237     0.9738     0.9738    -0.0000
 13 H      0.9766     1.0000     0.0234     0.9746     0.9746     0.0000
 14 H      0.9715     1.0000     0.0285     1.0003     1.0003     0.0000
 15 H      1.0005     1.0000    -0.0005     0.9771     0.9771     0.0000

  Mayer bond orders larger than 0.100000
B(  0-C ,  1-C ) :   1.9559 B(  0-C ,  7-H ) :   0.9463 B(  0-C ,  8-H ) :   0.9470 
B(  1-C ,  2-C ) :   1.0801 B(  1-C ,  6-H ) :   0.9547 B(  2-C ,  3-C ) :   1.9552 
B(  2-C , 15-H ) :   0.9560 B(  3-C , 13-H ) :   0.9490 B(  3-C , 14-H ) :   0.9480 
B(  4-C ,  5-C ) :   2.0738 B(  4-C ,  9-H ) :   0.9606 B(  4-C , 10-H ) :   0.9554 
B(  5-C , 11-H ) :   0.9546 B(  5-C , 12-H ) :   0.9613 

-------
TIMINGS
-------

Total SCF time: 0 days 0 hours 0 min 7 sec 

Total time                  ....       7.813 sec
Sum of individual times     ....       7.434 sec  ( 95.1%)

SCF preparation             ....       0.182 sec  (  2.3%)
Fock matrix formation       ....       7.031 sec  ( 90.0%)
  Startup                   ....       0.005 sec  (  0.1% of F)
  Split-RI-J                ....       0.628 sec  (  8.9% of F)
  Chain of spheres X        ....       5.204 sec  ( 74.0% of F)
  XC integration            ....       1.401 sec  ( 19.9% of F)
    XC Preparation          ....       0.000 sec  (  0.0% of XC)
    Basis function eval.    ....       0.394 sec  ( 28.1% of XC)
    Density eval.           ....       0.197 sec  ( 14.1% of XC)
    XC-Functional eval.     ....       0.079 sec  (  5.7% of XC)
    XC-Potential eval.      ....       0.219 sec  ( 15.6% of XC)
Diagonalization             ....       0.000 sec  (  0.0%)
Density matrix formation    ....       0.029 sec  (  0.4%)
Total Energy calculation    ....       0.016 sec  (  0.2%)
Population analysis         ....       0.013 sec  (  0.2%)
Orbital Transformation      ....       0.019 sec  (  0.2%)
Orbital Orthonormalization  ....       0.000 sec  (  0.0%)
DIIS solution               ....       0.084 sec  (  1.1%)
SOSCF solution              ....       0.061 sec  (  0.8%)
Finished LeanSCF after   7.8 sec

Maximum memory used throughout the entire LEANSCF-calculation: 11.7 MB


-------------------------------------------------------------------------------
                          DFT DISPERSION CORRECTION                            
                                                                               
                              DFTD3 V3.1  Rev 1                                
                          USING Becke-Johnson damping                          
-------------------------------------------------------------------------------
The B3LYP functional is recognized
Active option DFTDOPT                   ...         4   

molecular C6(AA) [au] = 2298.022863 


            DFT-D V3
 parameters
 s6 scaling factor         :     1.0000 
 a1 scaling factor         :     0.3981 
 s8 scaling factor         :     1.9889 
 a2 scaling factor         :     4.4211 
 ad hoc parameters k1-k3   :    16.0000     1.3333    -4.0000 

 Edisp/kcal,au: -12.304410504846  -0.019608324178 
 E6   /kcal   :  -6.049878671 
 E8   /kcal   :  -6.254531834 
 % E8         :  50.831625227 

-------------------------   ----------------
Dispersion correction           -0.019608324
-------------------------   ----------------


-------------------------   --------------------
FINAL SINGLE POINT ENERGY      -234.259346178831
-------------------------   --------------------



           ************************************************************
           *        Program running with 6 parallel MPI-processes     *
           *              working on a common directory               *
           ************************************************************
------------------------------------------------------------------------------
                         ORCA SCF GRADIENT CALCULATION
------------------------------------------------------------------------------

Nuc. rep. gradient        (SHARK) ... done (  0.0 sec)
HCore & Overlap gradient  (SHARK) ... done (  0.0 sec)
Split-RIJ-J gradient      (SHARK) ... done (  0.2 sec)
done (  3.4 sec)
XC gradient                       ... done (  0.8 sec)
Dispersion correction             ... done (  0.0 sec)

-------------------
DISPERSION GRADIENT
-------------------

   1   C   :   -0.000431318   -0.000660726    0.000113350
   2   C   :   -0.000498416   -0.000249710   -0.000164847
   3   C   :   -0.000454394    0.000249049   -0.000059155
   4   C   :   -0.000364618    0.000620118    0.000245957
   5   C   :    0.000677334   -0.000065483    0.000017365
   6   C   :    0.000785311    0.000116346   -0.000261811
   7   H   :   -0.000134450   -0.000125391   -0.000168754
   8   H   :   -0.000113638   -0.000272583    0.000218726
   9   H   :   -0.000074487   -0.000253125    0.000023769
  10   H   :    0.000117390   -0.000038455    0.000058188
  11   H   :    0.000307696   -0.000121781    0.000073742
  12   H   :    0.000371623    0.000088274   -0.000257530
  13   H   :    0.000116047    0.000084335   -0.000089408
  14   H   :   -0.000033150    0.000198862    0.000082252
  15   H   :   -0.000108376    0.000306552    0.000252203
  16   H   :   -0.000162555    0.000123718   -0.000084046

Difference to translation invariance:
           :    0.0000000000   -0.0000000000    0.0000000000

Difference to rotation invariance:
           :   -0.0000000000   -0.0000000000    0.0000000000

Norm of the Dispersion gradient    ...    0.0019730617
RMS gradient                       ...    0.0002847869
MAX gradient                       ...    0.0007853107

------------------
CARTESIAN GRADIENT
------------------

   1   C   :    0.000054634   -0.000072466    0.000058126
   2   C   :   -0.000019115    0.000133094   -0.000081450
   3   C   :    0.000059966   -0.000100105    0.000064660
   4   C   :   -0.000123595    0.000070167    0.000013302
   5   C   :    0.000094000    0.000047509   -0.000053253
   6   C   :   -0.000036684   -0.000091570   -0.000001497
   7   H   :    0.000062841   -0.000029076    0.000023972
   8   H   :   -0.000001921   -0.000098088   -0.000091064
   9   H   :   -0.000052610   -0.000000422    0.000051933
  10   H   :   -0.000047752   -0.000008118   -0.000049045
  11   H   :   -0.000020298    0.000087906    0.000059425
  12   H   :   -0.000009460    0.000031133    0.000040747
  13   H   :   -0.000019792   -0.000023290    0.000043036
  14   H   :    0.000083497   -0.000004406   -0.000016194
  15   H   :    0.000006046   -0.000003304   -0.000048809
  16   H   :   -0.000029757    0.000061036   -0.000013889

Difference to translation invariance:
           :   -0.0000000000    0.0000000000    0.0000000000

Difference to rotation invariance:
           :   -0.0000482609    0.0000291526   -0.0000522652

Norm of the Cartesian gradient     ...    0.0004041417
RMS gradient                       ...    0.0000583328
MAX gradient                       ...    0.0001330941

-------
TIMINGS
-------

Total SCF gradient time     ....        4.473 sec

Densities                   ....       0.001 sec  (  0.0%)
One electron gradient       ....       0.048 sec  (  1.1%)
RI-J Coulomb gradient       ....       0.241 sec  (  5.4%)
COSX gradient               ....       3.352 sec  ( 74.9%)
XC gradient                 ....       0.782 sec  ( 17.5%)

Maximum memory used throughout the entire SCFGRAD-calculation: 28.4 MB


           ************************************************************
           *        Program running with 6 parallel MPI-processes     *
           *              working on a common directory               *
           ************************************************************

------------------------------------------------------------------------------
                              ORCA PROPERTY CALCULATIONS
------------------------------------------------------------------------------

GBWName                                 ... orca.gbw
Number of atoms                         ...     16
Number of basis functions               ...    134
Max core memory                         ...   4096 MB

Electric properties:
Dipole moment                           ... YES
Quadrupole moment                       ...  NO
Static polarizability (Dipole/Dipole)   ...  NO
Static polarizability (Dipole/Quad.)    ...  NO
Static polarizability (Quad./Quad.)     ...  NO
Static polarizability (Velocity)        ...  NO
Static hyperpolarizability              ...  NO

Atomic electric properties:
Dipole moment                           ...  NO
Quadrupole moment                       ...  NO
Static polarizability                   ...  NO

Choice of electric origin               ... Center of mass
Position of electric origin             ...    -0.022071     0.008459    -0.017218

General magnetic properties:
Magnetizability                         ...  NO

EPR properties:
g-Tensor (aka g-matrix)                 ...  NO
Zero-Field splitting spin-orbit         ...  NO
Zero-field splitting spin-spin          ...  NO
Hyperfine couplings                     ...  NO (   0 nuclei)
Quadrupole couplings                    ...  NO (   0 nuclei)
Contact density                         ...  NO (   0 nuclei)

NMR properties:
Chemical shifts                         ...  NO (   0 nuclei)
Spin-rotation constants                 ...  NO (   0 nuclei)
Spin-spin couplings                     ...  NO (   0 nuclei,    0 pairs)

Choice of magnetic origin               ... GIAO
Position of magnetic origin             ...     0.000000     0.000000     0.000000

Properties with geometric perturbations:
SCF Hessian                             ...  NO
IR spectrum                             ...  NO
VCD spectrum                            ...  NO
X-ray spectroscopy properties:
SCF XES/XAS/RIXS spectra                ...  NO

SCF SOC stabilization energy            ...  NO
Diagonal Born-Oppenheimer correction    ...  NO

-------------
DIPOLE MOMENT
-------------

Method             : SCF
Type of density    : Electron Density
Multiplicity       :   1
Irrep              :   0
Energy             :  -234.2397378546532707 Eh
Basis              : AO
                                X                 Y                 Z
Electronic contribution:     -2.539097437       0.098863416      -0.505147625
Nuclear contribution   :      2.472113370      -0.080693545       0.471313949
                        -----------------------------------------
Total Dipole Moment    :     -0.066984067       0.018169870      -0.033833676
                        -----------------------------------------
Magnitude (a.u.)       :      0.077212221
Magnitude (Debye)      :      0.196257868



--------------------
Rotational spectrum 
--------------------
 
Rotational constants in cm-1:             0.140561             0.058060             0.046697 
Rotational constants in MHz :          4213.914558          1740.590543          1399.929068 

Dipole components along the rotational axes: 
x,y,z [a.u.] :     0.067911     0.011778    -0.034801 
x,y,z [Debye]:     0.172616     0.029937    -0.088456 

 

Dipole moment calculation done in   0.0 sec 

Maximum memory used throughout the entire PROP-calculation: 6.6 MB

--------------------------------
SUGGESTED CITATIONS FOR THIS RUN
--------------------------------

Below you find a list of papers that are relevant to this ORCA run
We neither can nor want to force you to cite these papers, but we appreciate if you do
You receive ORCA, which is the product of decades of hard work by many enthusiastic individuals, for free
The only thing we kindly ask in return is that you cite our papers,
We deeply appreciate it, if you show your appreciation for ORCA by not just citing the generic ORCA reference.

Please note that relegating all ORCA citations to the supporting information does *not* help us.
SI sections are not indexed - citations you put there will not count into any citation statistics
But we need these citations in order to attract the funding resources that allow us to do what we are doing

Therefore, if you are a happy ORCA user, please consider citing a few of the papers listed below in the main body of your paper

In addition to the list printed below, the program has created the file orca.bibtex that contains the list in bibtex format
You can import this file easily into all common literature databanks and citation aid programs


List of essential papers. We consider these as the minimum necessary citations

  1. Neese, F.
     Software update: the ORCA program system, version 6.0
     WIRES Comput. Molec. Sci. 2025 15(1), e70019
     doi.org/10.1002/wcms.7019

List of papers to cite with high priority. The work reported in these papers was absolutely
necessary for this run to complete.
Our perspective: the developers of density functionals and basis sets usually get cited in chemistry papers
Good! But without the algorithms to do something with them, the functionals or basis sets would not do anything.
Hence, in our opinion, the algorithm design and method developments papers are equally worthy of getting cited

  1. Neese, F.
     An improvement of the resolution of the identity approximation for the formation of the Coulomb matrix
     J. Comp. Chem. 2003 24(14), 1740-1747
     doi.org/10.1002/jcc.10318
  2. Neese, F.; Wennmohs, F.; Hansen, A.; Becker, U.
     Efficient, approximate and parallel Hartree-Fock and hybrid DFT calculations. A 'chain-of-spheres' algorithm for the Hartree-Fock exchange
     Chem. Phys. 2009 356(1-3), 98-109
     doi.org/10.1016/j.chemphys.2008.10.036
  3. Grimme, S.; Antony, J.; Ehrlich, S.; Krieg, H.
     A consistent and accurate ab initio parametrization of density functional dispersion correction (DFT-D) for the 94 elements H-Pu
     J. Chem. Phys. 2010 132 , 154104
     doi.org/10.1063/1.3382344
  4. Grimme, S.; Ehrlich, S.; Goerigk, L.
     Effect of the damping function in dispersion corrected density functional theory
     J. Comput. Chem. 2011 32(7), 1456-1465
     doi.org/10.1002/jcc.21759
  5. Helmich-Paris, B.; de Souza, B.; Neese, F.; Izsák, R.
     An improved chain of spheres for exchange algorithm
     J. Chem. Phys. 2021 155(10), 104109
     doi.org/10.1063/5.0058766
  6. Neese, F.
     The SHARK Integral Generation and Digestion System
     J. Comp. Chem. 2022 44(3), 381
     doi.org/10.1002/jcc.26942

List of suggested additional citations. These are papers that are important in the 'surrounding' of 
of this run, or papers that preceded the highly important papers. If you like your results we are grateful for a citation.

  1. Izsak, R.; Neese, F.
     An overlap fitted chain of spheres exchange method
     J. Chem. Phys. 2011 135 , 144105
     doi.org/10.1063/1.3646921
  2. Izsak, R.; Hansen, A.; Neese, F.
     The resolution of identity and chain of spheres approximations for the LPNO-CCSD singles Fock term
     Molec. Phys. 2012 110 , 2413-2417
     doi.org/10.1080/00268976.2012.687466
  3. Neese, F.
     The ORCA program system
     WIRES Comput. Molec. Sci. 2012 2(1), 73-78
     doi.org/10.1002/wcms.81
  4. Izsak, R.; Neese, F.; Klopper, W.
     Robust fitting techniques in the chain of spheres approximation to the Fock exchange: The role of the complementary space
     J. Chem. Phys. 2013 139 , 
     doi.org/10.1063/1.4819264
  5. Neese, F.
     Software update: the ORCA program system, version 4.0
     WIRES Comput. Molec. Sci. 2018 8(1), 1-6
     doi.org/10.1002/wcms.1327
  6. Neese, F.; Wennmohs, F.; Becker, U.; Riplinger, C.
     The ORCA quantum chemistry program package
     J. Chem. Phys. 2020 152(22), 224108
     doi.org/10.1063/5.0004608
  7. Neese, F.
     Software update: The ORCA program system—Version 5.0
     WIRES Comput. Molec. Sci. 2022 12(1), e1606
     doi.org/10.1002/wcms.1606

List of optional additional citations

  1. Neese, F.
     Approximate second-order SCF convergence for spin unrestricted wavefunctions
     Chem. Phys. Lett. 2000 325(1-3), 93-98
     doi.org/10.1016/s0009-2614(00)00662-x

Timings for individual modules:

Sum of individual times          ...       15.703 sec (=   0.262 min)
Startup calculation              ...        1.414 sec (=   0.024 min)   9.0 %
SCF iterations                   ...        8.827 sec (=   0.147 min)  56.2 %
Property calculations            ...        0.462 sec (=   0.008 min)   2.9 %
SCF Gradient evaluation          ...        5.000 sec (=   0.083 min)  31.8 %
                             ****ORCA TERMINATED NORMALLY****
TOTAL RUN TIME: 0 days 0 hours 0 minutes 16 seconds 335 msec
