
                                 *****************
                                 * O   R   C   A *
                                 *****************

                                            #,                                       
                                            ###                                      
                                            ####                                     
                                            #####                                    
                                            ######                                   
                                           ########,                                 
                                     ,,################,,,,,                         
                               ,,#################################,,                 
                          ,,##########################################,,             
                       ,#########################################, ''#####,          
                    ,#############################################,,   '####,        
                  ,##################################################,,,,####,       
                ,###########''''           ''''###############################       
              ,#####''   ,,,,##########,,,,          '''####'''          '####       
            ,##' ,,,,###########################,,,                        '##       
           ' ,,###''''                  '''############,,,                           
         ,,##''                                '''############,,,,        ,,,,,,###''
      ,#''                                            '''#######################'''  
     '                                                          ''''####''''         
             ,#######,   #######,   ,#######,      ##                                
            ,#'     '#,  ##    ##  ,#'     '#,    #''#        ,####,    ,#,          
            ##       ##  ##   ,#'  ##            #'  '#       #'       ,# #          
            ##       ##  #######   ##           ,######,      #####,      #          
            '#,     ,#'  ##    ##  '#,     ,#' ,#      #,     #,   #      #          
             '#######'   ##     ##  '#######'  #'      '#     '####' #    #          



                #########################################################
                #                        -***-                          #
                #          Department of theory and spectroscopy        #
                #                                                       #
                #                      Frank Neese                      #
                #                                                       #
                #     Directorship, Architecture, Infrastructure        #
                #                    SHARK, DRIVERS                     #
                #        Core code/Algorithms in most modules           #
                #                                                       #
                #        Max Planck Institute fuer Kohlenforschung      #
                #                Kaiser Wilhelm Platz 1                 #
                #                 D-45470 Muelheim/Ruhr                 #
                #                      Germany                          #
                #                                                       #
                #                  All rights reserved                  #
                #                        -***-                          #
                #########################################################


                         Program Version 6.1.0  -  RELEASE   -
                                (GIT: $679e74b$)
                          ($2025-06-10 18:02:51 +0200$)


 With contributions from (in alphabetic order):
[Max-Planck-Institut fuer Kohlenforschung]                               
  Daniel Aravena         : Magnetic Suceptibility                        
  Michael Atanasov       : Ab Initio Ligand Field Theory (pilot matlab implementation)
  Alexander A. Auer      : GIAO ZORA, VPT2 properties, NMR spectrum      
  Ute Becker             : All parallelization in ORCA, NUMFREQ, NUMCALC 
  Giovanni Bistoni       : ED, misc. LED, open-shell LED, HFLD           
  Dmytro Bykov           : pre 5.0 version of the SCF Hessian            
  Marcos Casanova-Páez   : Triplet and SCS-CIS(D). UHF-(DLPNO)-IP/EA/STEOM-CCSD. UHF-CVS-IP/STEOM-CCSD   
  Vijay G. Chilkuri      : MRCI spin determinant printing, contributions to CSF-ICE 
  Pauline Colinet        : FMM embedding                                 
  Dipayan Datta          : RHF DLPNO-CCSD density                        
  Achintya Kumar Dutta   : EOM-CC, STEOM-CC                              
  Nicolas Foglia         : Exact transition moments, OPA infrastructure, MCD improvements    
  Dmitry Ganyushin       : Spin-Orbit,Spin-Spin,Magnetic field MRCI      
  Miquel Garcia-Rates    : C-PCM and meta-GGA Hessian, CCSD/C-PCM, Gaussian charge scheme 
  Tiago L. C. Gouveia    : GS-ROHF, GS-ROCIS                             
  Yang Guo               : DLPNO-NEVPT2, F12-NEVPT2, CIM, IAO-localization        
  Andreas Hansen         : Spin unrestricted coupled pair/coupled cluster methods 
  Ingolf Harden          : AUTO-CI MPn and infrastructure                
  Benjamin Helmich-Paris : MC-RPA, TRAH-(SCF,CASSCF), AVAS, COSX integrals, SCF dyn. polar., MC-PDFT, srDFT 
  Lee Huntington         : MR-EOM, pCC                                   
  Robert Izsak           : Overlap fitted RIJCOSX, COSX-SCS-MP3, EOM     
  Riya Kayal             : Wick's Theorem for AUTO-CI, AUTO-CI UHF-CCSDT 
  Emily Kempfer          : AUTO-CI RHF CISDT and CCSDT, approximate NEVPT4
  Christian Kollmar      : KDIIS, OOCD, Brueckner-CCSD(T), CCSD density, CASPT2, CASPT2-K, improved NEVPT2 
  Axel Koslowski         : Symmetry handling                             
  Simone Kossmann        : meta-GGA functionals, TD-DFT gradient, OOMP2, (MP2 Hessian; deprecated post 5.0) 
  Lucas Lang             : DCDCAS, Hyperfine gauge corrections, ICE-SOC+SSC
  Marvin Lechner         : AUTO-CI (C++ implementation), FIC-MRCC        
  Spencer Leger          : CASSCF response                               
  Dagmar Lenk            : GEPOL surface, SMD, ORCA-2-JSON               
  Dimitrios Liakos       : Extrapolation schemes; Compound Job, Property file
  Dimitrios Manganas     : Further ROCIS development; embedding schemes. LFT, Crystal Embedding 
  Dimitrios Pantazis     : SARC Basis sets                               
  Anastasios Papadopoulos: AUTO-CI, single reference methods and gradients 
  Taras Petrenko         : pre 6.0 DFT Hessian and TD-DFT gradient,  ECA, NRVS 
  Petra Pikulova         : Analytic Raman intensities                    
  Peter Pinski           : DLPNO-MP2, DLPNO-MP2 Gradient                 
  Shashank Vittal Rao    : ES-AILFT, MagRelax                            
  Christoph Reimann      : Effective Core Potentials                     
  Marius Retegan         : Local ZFS, SOC                                
  Christoph Riplinger    : Optimizer, TS searches, QM/MM, DLPNO-CCSD(T), (RO)-DLPNO pert. Triples 
  Michael Roemelt        : Original ROCIS implementation, recursive CI coupling coefficients
  Masaaki Saitow         : Open-shell DLPNO-CCSD energy and density      
  Barbara Sandhoefer     : DKH picture change effects                    
  Yorick L. A. Schmerwitz: GMF and freeze-and-release deltaSCF, NEB S-IDPP initial path                    
  Kantharuban Sivalingam : CASSCF convergence/infrastructure, NEVPT2, NEVPT3, NEVPT4(SD), FIC-MRCI and CEPA variants
  Bernardo de Souza      : ESD, SOC TD-DFT                               
  Georgi L. Stoychev     : AutoAux, RI-MP2 NMR, DLPNO-MP2 response, X2C  
  Van Anh Tran           : RI-MP2 g-tensors                              
  Willem Van den Heuvel  : Paramagnetic NMR                              
  Zikuan Wang            : NOTCH, Electric field optimization            
  Frank Wennmohs         : Technical directorship and infrastructure     
  Hang Xu                : AUTO-CI-Response properties                   
                                                                         
[FACCTs GmbH]                                                            
  Markus Bursch, Nicolas Foglia, Miquel Garcia-Rates, Ingolf Harden, Hagen Neugebauer, Anastasios Papadopoulos, 
  Christoph Riplinger, Bernardo de Souza, Georgi L. Stoychev                                                    
                                                                 
  APM, various basis sets, CI-OPT, improved COSX, DLPNO-Multilevel,           
  DOCKER, DRACO, updates on ESD, Fragmentator, GOAT, IRC, LR-CPCM, L-BFGS, MBIS, meta-GGA TD-DFT gradient, ML-optimized integration grids, 
  MM, NACMEs, nearIR, NEB, NEB-TS, NL-DFT gradient (VV10), 2- and 3-layer-ONIOM, interface openCOSMO-RS, QMMM,   
  Crystal-QMMM, RESP, rigid body optimization, SF, symmetry and pop. for TD-DFT, various functionals, SOLVATOR                                   
                                                                         
[Other institutions]                                                     
  V. Asgeirsson          : NEB                                           
  Christoph Bannwarth    : sTDA-DFT, sTD-DFT, PBEh-3c, B97-3c, D3        
  Giovanni Bistoni       : ETS/NOCV, ADLD/ADEX, COVALED                  
  Martin Brehm           : Molecular dynamics                            
  Ronald Cardenas        : ETS/NOCV                                      
  Martina Colucci        : COVALED                                       
  Sebastian Ehlert       : rSCAN, r2SCAN, r2SCAN-3c, D4, dhf basis sets  
  Marvin Friede          : D4 for Fr, Ra, Ac-Lr                          
  Lars Goerigk           : TD-DFT with DH, B97 family of functionals     
  Stefan Grimme          : VdW corrections, initial TS optimization, DFT functionals, gCP, sTDA/sTD-DF 
  Waldemar Hujo          : DFT-NL                                        
  H. Jonsson             : NEB                                           
  Holger Kruse           : gCP                                           
  Marcel Mueller         : wB97X-3c, vDZP basis set                      
  Hagen Neugebauer       : wr2SCAN, Native XTB                           
  Gianluca Regni         : ADLD/ADEX                                     
  Tobias Risthaus        : pre 6.0 range-separated hybrid DFT and stability analysis
  Lukas Wittmann         : regularized MP2, r2SCAN double-hybrids, wr2SCAN        
                                                                         
We gratefully acknowledge several colleagues who have allowed us to      
interface, adapt or use parts of their codes:                            
  Ed Valeev, F. Pavosevic, A. Kumar             : LibInt (2-el integral package), F12 methods 
  Garnet Chan, S. Sharma, J. Yang, R. Olivares  : DMRG                   
  Ulf Ekstrom                                   : XCFun DFT Library      
  Mihaly Kallay                                 : mrcc  (arbitrary order and MRCC methods)
  Frank Weinhold                                : gennbo (NPA and NBO analysis)           
  Simon Mueller                                 : openCOSMO-RS                            
  Christopher J. Cramer and Donald G. Truhlar   : smd solvation model                     
  S Lehtola, MJT Oliveira, MAL Marques          : LibXC Library                           
  Liviu Ungur et al                             : ANISO software                          


 Your calculation uses the libint2 library for the computation of 2-el integrals
 For citations please refer to: http://libint.valeyev.net

 Your ORCA version has been built with support for libXC version: 7.0.0
 For citations please refer to: https://libxc.gitlab.io

 This ORCA versions uses:
   CBLAS   interface :  Fast vector & matrix operations
   LAPACKE interface :  Fast linear algebra routines
   SCALAPACK package :  Parallel linear algebra routines
   Shared memory     :  Shared parallel matrices
   BLAS/LAPACK       :  OpenBLAS 0.3.29  USE64BITINT DYNAMIC_ARCH NO_AFFINITY Zen SINGLE_THREADED
        Core in use  :  Zen
   Copyright (c) 2011-2014, The OpenBLAS Project


  ***********************************
  * Starting time: Wed Sep 10 13:38:37 2025
  * Host name:     wyk-Server
  * Process ID:    2310023
  * Working dir.:  /home/wyk/Documents/code/openQDC/MGMR/singlepointcalc/103/react
  ***********************************

Your calculation utilizes the atom-pairwise dispersion correction
with the Becke-Johnson damping scheme (D3BJ)


Warning: RI is on but no J-basis has been assigned. Assigning Def2/J (nothing to worry about!)
================================================================================

----- Orbital basis set information -----
Your calculation utilizes the basis: def2-SVP
   F. Weigend and R. Ahlrichs, Phys. Chem. Chem. Phys. 7, 3297 (2005).

----- AuxJ basis set information -----
Your calculation utilizes the auxiliary basis: def2/J
   H-Rn: F. Weigend, Phys. Chem. Chem. Phys. 8, 1057 (2006).
   Fr-Lr: K. Eichkorn, F. Weigend, O. Treutler, R. Ahlrichs; Theor. Chem. Acc. 97, 119 (1997).

================================================================================
                                        WARNINGS
                       Please study these warnings very carefully!
================================================================================


================================================================================
                                       INPUT FILE
================================================================================
NAME = orca.inp
|  1> ! B3LYP def2-SVP d3 EnGrad 
|  2> %pal nprocs 6 end 
|  3> *xyz 0 1 
|  4> C   -3.04347311082097 1.22446328604673 -0.06938989830847
|  5> C   -2.43415631414004 0.04415491858594 -0.21080080988922
|  6> H   -2.81058999834088 1.88987620626786 0.76909403563432
|  7> H   -3.79812662772203 1.56928213266814 -0.78225714132432
|  8> C   -1.38556185061648 -0.5153479181713 0.70829007519665
|  9> H   -2.69506857144252 -0.58707157530605 -1.07190091032989
| 10> C   -0.02962150947334 -0.75994399156094 0.00808235868131
| 11> H   -1.74075833950023 -1.48146736625732 1.11197540339779
| 12> H   -1.23963772371405 0.15877473815881 1.56881575380254
| 13> C   0.63631539271109 0.50308803695813 -0.45854284023481
| 14> H   -0.20183104654269 -1.42409011850252 -0.86092054108344
| 15> H   0.64231637223266 -1.30561763836492 0.69122174371637
| 16> C   1.84762449278914 0.91871328368038 -0.07860619134922
| 17> H   0.0534616073878 1.12275110316835 -1.15208227676047
| 18> H   2.46045868735481 0.33573922882586 0.61836595835187
| 19> H   2.27651853983777 1.85341567380283 -0.45117471950101
| 20> *
| 21> 
| 22>                          ****END OF INPUT****
================================================================================

                     *******************************
                     * Energy+Gradient Calculation *
                     *******************************

---------------------------------
CARTESIAN COORDINATES (ANGSTROEM)
---------------------------------
  C     -3.043473    1.224463   -0.069390
  C     -2.434156    0.044155   -0.210801
  H     -2.810590    1.889876    0.769094
  H     -3.798127    1.569282   -0.782257
  C     -1.385562   -0.515348    0.708290
  H     -2.695069   -0.587072   -1.071901
  C     -0.029622   -0.759944    0.008082
  H     -1.740758   -1.481467    1.111975
  H     -1.239638    0.158775    1.568816
  C      0.636315    0.503088   -0.458543
  H     -0.201831   -1.424090   -0.860921
  H      0.642316   -1.305618    0.691222
  C      1.847624    0.918713   -0.078606
  H      0.053462    1.122751   -1.152082
  H      2.460459    0.335739    0.618366
  H      2.276519    1.853416   -0.451175

----------------------------
CARTESIAN COORDINATES (A.U.)
----------------------------
  NO LB      ZA    FRAG     MASS         X           Y           Z
   0 C     6.0000    0    12.011   -5.751331    2.313900   -0.131128
   1 C     6.0000    0    12.011   -4.599889    0.083441   -0.398356
   2 H     1.0000    0     1.008   -5.311245    3.571348    1.453377
   3 H     1.0000    0     1.008   -7.177419    2.965513   -1.478252
   4 C     6.0000    0    12.011   -2.618332   -0.973866    1.338474
   5 H     1.0000    0     1.008   -5.092942   -1.109404   -2.025599
   6 C     6.0000    0    12.011   -0.055977   -1.436086    0.015273
   7 H     1.0000    0     1.008   -3.289557   -2.799568    2.101329
   8 H     1.0000    0     1.008   -2.342576    0.300041    2.964632
   9 C     6.0000    0    12.011    1.202462    0.950699   -0.866520
  10 H     1.0000    0     1.008   -0.381405   -2.691140   -1.626904
  11 H     1.0000    0     1.008    1.213802   -2.467260    1.306220
  12 C     6.0000    0    12.011    3.491504    1.736117   -0.148544
  13 H     1.0000    0     1.008    0.101028    2.121692   -2.177120
  14 H     1.0000    0     1.008    4.649593    0.634455    1.168542
  15 H     1.0000    0     1.008    4.301997    3.502448   -0.852597

--------------------------------
INTERNAL COORDINATES (ANGSTROEM)
--------------------------------
 C      0   0   0     0.000000000000     0.00000000     0.00000000
 C      1   0   0     1.335811306633     0.00000000     0.00000000
 H      1   2   0     1.095474420494   121.38374812     0.00000000
 H      1   2   3     1.093883756951   121.61604712   180.16465240
 C      2   1   3     1.502438627139   125.63640586   359.64171544
 H      2   1   3     1.099097573276   118.82352413   180.42275761
 C      5   2   1     1.545539483198   113.20980620   241.33001224
 H      5   2   1     1.105673178607   108.93716798   121.16232087
 H      5   2   1     1.102832557612   110.00135229     4.21871809
 C      7   5   2     1.502152102491   113.36612219    65.48773607
 H      7   5   2     1.107209213468   108.30384956   304.08989698
 H      7   5   2     1.102696542605   109.40529538   188.37615441
 C     10   7   5     1.335801609076   125.11825467   121.22930942
 H     10   7   5     1.097587263368   115.82120025   302.31284739
 H     13  10   7     1.095990271910   121.49480918     0.61799983
 H     13  10   7     1.093812584433   121.63924489   180.33498499

---------------------------
INTERNAL COORDINATES (A.U.)
---------------------------
 C      0   0   0     0.000000000000     0.00000000     0.00000000
 C      1   0   0     2.524317536133     0.00000000     0.00000000
 H      1   2   0     2.070146641449   121.38374812     0.00000000
 H      1   2   3     2.067140722982   121.61604712   180.16465240
 C      2   1   3     2.839197538318   125.63640586   359.64171544
 H      2   1   3     2.076993407949   118.82352413   180.42275761
 C      5   2   1     2.920646352407   113.20980620   241.33001224
 H      5   2   1     2.089419501189   108.93716798   121.16232087
 H      5   2   1     2.084051505459   110.00135229     4.21871809
 C      7   5   2     2.838656085203   113.36612219    65.48773607
 H      7   5   2     2.092322186409   108.30384956   304.08989698
 H      7   5   2     2.083794474346   109.40529538   188.37615441
 C     10   7   5     2.524299210406   125.11825467   121.22930942
 H     10   7   5     2.074139335845   115.82120025   302.31284739
 H     13  10   7     2.071121459352   121.49480918     0.61799983
 H     13  10   7     2.067006226415   121.63924489   180.33498499

---------------------
BASIS SET INFORMATION
---------------------
There are 2 groups of distinct atoms

 Group   1 Type C   : 7s4p1d contracted to 3s2p1d pattern {511/31/1}
 Group   2 Type H   : 4s1p contracted to 2s1p pattern {31/1}

Atom   0C    basis set group =>   1
Atom   1C    basis set group =>   1
Atom   2H    basis set group =>   2
Atom   3H    basis set group =>   2
Atom   4C    basis set group =>   1
Atom   5H    basis set group =>   2
Atom   6C    basis set group =>   1
Atom   7H    basis set group =>   2
Atom   8H    basis set group =>   2
Atom   9C    basis set group =>   1
Atom  10H    basis set group =>   2
Atom  11H    basis set group =>   2
Atom  12C    basis set group =>   1
Atom  13H    basis set group =>   2
Atom  14H    basis set group =>   2
Atom  15H    basis set group =>   2
---------------------------------
AUXILIARY/J BASIS SET INFORMATION
---------------------------------
There are 2 groups of distinct atoms

 Group   1 Type C   : 12s5p4d2f1g contracted to 6s4p3d1f1g pattern {711111/2111/211/2/1}
 Group   2 Type H   : 5s2p1d contracted to 3s1p1d pattern {311/2/1}

Atom   0C    basis set group =>   1
Atom   1C    basis set group =>   1
Atom   2H    basis set group =>   2
Atom   3H    basis set group =>   2
Atom   4C    basis set group =>   1
Atom   5H    basis set group =>   2
Atom   6C    basis set group =>   1
Atom   7H    basis set group =>   2
Atom   8H    basis set group =>   2
Atom   9C    basis set group =>   1
Atom  10H    basis set group =>   2
Atom  11H    basis set group =>   2
Atom  12C    basis set group =>   1
Atom  13H    basis set group =>   2
Atom  14H    basis set group =>   2
Atom  15H    basis set group =>   2


           ************************************************************
           *        Program running with 6 parallel MPI-processes     *
           *              working on a common directory               *
           ************************************************************
------------------------------------------------------------------------------
                             ORCA STARTUP CALCULATIONS
                           -- RI-GTO INTEGRALS CHOSEN --
------------------------------------------------------------------------------
------------------------------------------------------------------------------
                   ___                                                        
                  /   \      - P O W E R E D   B Y -                         
                 /     \                                                     
                 |  |  |   _    _      __       _____    __    __             
                 |  |  |  | |  | |    /  \     |  _  \  |  |  /  |          
                  \  \/   | |  | |   /    \    | | | |  |  | /  /          
                 / \  \   | |__| |  /  /\  \   | |_| |  |  |/  /          
                |  |  |   |  __  | /  /__\  \  |    /   |      \           
                |  |  |   | |  | | |   __   |  |    \   |  |\   \          
                \     /   | |  | | |  |  |  |  | |\  \  |  | \   \       
                 \___/    |_|  |_| |__|  |__|  |_| \__\ |__|  \__/        
                                                                              
                      - O R C A' S   B I G   F R I E N D -                    
                                      &                                       
                       - I N T E G R A L  F E E D E R -                       
                                                                              
 v1 FN, 2020, v2 2021, v3 2022-2024                                           
------------------------------------------------------------------------------


----------------------
SHARK INTEGRAL PACKAGE
----------------------

Number of atoms                             ...     16
Number of basis functions                   ...    134
Number of shells                            ...     66
Maximum angular momentum                    ...      2
Integral batch strategy                     ... SHARK/LIBINT Hybrid
RI-J (if used) integral strategy            ... SPLIT-RIJ (Revised 2003 algorithm where possible)
Printlevel                                  ...      1
Contraction scheme used                     ... SEGMENTED contraction
Prescreening option                         ... SCHWARTZ
   Thresh                                   ... 2.500e-11
   Tcut                                     ... 2.500e-12
   Tpresel                                  ... 2.500e-12 
Coulomb Range Separation                    ... NOT USED
Exchange Range Separation                   ... NOT USED
Multipole approximations                    ... NOT USED
Finite Nucleus Model                        ... NOT USED
CABS basis                                  ... NOT available
Auxiliary Coulomb fitting basis             ... AVAILABLE
   # of basis functions in Aux-J            ...    404
   # of shells in Aux-J                     ...    140
   Maximum angular momentum in Aux-J        ...      4
Auxiliary J/K fitting basis                 ... NOT available
Auxiliary Correlation fitting basis         ... NOT available
Auxiliary 'external' fitting basis          ... NOT available

Checking pre-screening integrals            ... done (  0.0 sec) Dimension = 66
   => SHARK Basis and OBASIS are compatible. Storing Pre-screening
Shell pair information
Shell pair cut-off parameter TPreSel        ...   2.5e-12
Total number of shell pairs                 ...      2211
Shell pairs after pre-screening             ...      2108
Total number of primitive shell pairs       ...      7611
Primitive shell pairs kept                  ...      5558
          la=0 lb=0:    715 shell pairs
          la=1 lb=0:    793 shell pairs
          la=1 lb=1:    240 shell pairs
          la=2 lb=0:    215 shell pairs
          la=2 lb=1:    125 shell pairs
          la=2 lb=2:     20 shell pairs

Checking whether 4 symmetric matrices of dimension 134 fit in memory
:Max Core in MB      =   4096.00
 MB in use           =      5.99
 MB left             =   4090.01
 MB needed           =      0.28
 Data fit in memory  = YES
Calculating RI/J V-Matrix + Cholesky decomp.... done (  0.0 sec)
Calculating Nuclear repulsion               ... done (  0.0 sec) ENN=    215.752138187539 Eh

Diagonalization of the overlap matrix:
Smallest eigenvalue                        ... 1.938e-03
Time for diagonalization                   ...    0.003 sec
Threshold for overlap eigenvalues          ... 1.000e-07
Number of eigenvalues below threshold      ... 0
Time for construction of square roots      ...    0.001 sec
Total time needed                          ...    0.005 sec

-------------------
DFT GRID GENERATION
-------------------

General Integration Accuracy     IntAcc      ... 4.388
Radial Grid Type                 RadialGrid  ... OptM3 with GC (2021)
Angular Grid (max. ang.)         AngularGrid ... 4 (Lebedev-302)
Angular grid pruning method      GridPruning ... 4 (adaptive)
Weight generation scheme         WeightScheme... mBecke (2022)
Basis function cutoff            BFCut       ... 1.0000e-11
Integration weight cutoff        WCut        ... 1.0000e-14
Partially contracted basis set               ... off
Rotationally invariant grid construction     ... off
Angular grids for H and He will be reduced by one unit

Total number of grid points                  ...    68482
Total number of batches                      ...     1077
Average number of points per batch           ...       63
Average number of grid points per atom       ...     4280

--------------------
COSX GRID GENERATION
--------------------

GRIDX 1
-------
General Integration Accuracy     IntAcc      ... 3.816
Radial Grid Type                 RadialGrid  ... OptM3 with GC (2021)
Angular Grid (max. ang.)         AngularGrid ... 1 (Lebedev-50)
Angular grid pruning method      GridPruning ... 4 (adaptive)
Weight generation scheme         WeightScheme... mBecke (2022)
Basis function cutoff            BFCut       ... 1.0000e-11
Integration weight cutoff        WCut        ... 1.0000e-14
Partially contracted basis set               ... on
Rotationally invariant grid construction     ... off
Angular grids for H and He will be reduced by one unit

Total number of grid points                  ...     8797
Total number of batches                      ...       80
Average number of points per batch           ...      109
Average number of grid points per atom       ...      550
UseSFitting                                  ... on

GRIDX 2
-------
General Integration Accuracy     IntAcc      ... 4.020
Radial Grid Type                 RadialGrid  ... OptM3 with GC (2021)
Angular Grid (max. ang.)         AngularGrid ... 2 (Lebedev-110)
Angular grid pruning method      GridPruning ... 4 (adaptive)
Weight generation scheme         WeightScheme... mBecke (2022)
Basis function cutoff            BFCut       ... 1.0000e-11
Integration weight cutoff        WCut        ... 1.0000e-14
Partially contracted basis set               ... on
Rotationally invariant grid construction     ... off
Angular grids for H and He will be reduced by one unit

Total number of grid points                  ...    18500
Total number of batches                      ...      155
Average number of points per batch           ...      119
Average number of grid points per atom       ...     1156
UseSFitting                                  ... on

GRIDX 3
-------
General Integration Accuracy     IntAcc      ... 4.338
Radial Grid Type                 RadialGrid  ... OptM3 with GC (2021)
Angular Grid (max. ang.)         AngularGrid ... 3 (Lebedev-194)
Angular grid pruning method      GridPruning ... 4 (adaptive)
Weight generation scheme         WeightScheme... mBecke (2022)
Basis function cutoff            BFCut       ... 1.0000e-11
Integration weight cutoff        WCut        ... 1.0000e-14
Partially contracted basis set               ... on
Rotationally invariant grid construction     ... off
Angular grids for H and He will be reduced by one unit

Total number of grid points                  ...    40488
Total number of batches                      ...      325
Average number of points per batch           ...      124
Average number of grid points per atom       ...     2530
UseSFitting                                  ... on
Grids setup in   0.9 sec
Initializing property integral containers    ... done (  0.0 sec)

SHARK setup successfully completed in   1.0 seconds

Maximum memory used throughout the entire STARTUP-calculation: 17.9 MB


           ************************************************************
           *        Program running with 6 parallel MPI-processes     *
           *              working on a common directory               *
           ************************************************************
-------------------------------------------------------------------------------
                                 ORCA GUESS
                   Start orbitals & Density for SCF / CASSCF
-------------------------------------------------------------------------------

------------
SCF SETTINGS
------------
Hamiltonian:
 Density Functional     Method          .... DFT(GTOs)
 Exchange Functional    Exchange        .... B88
   X-Alpha parameter    XAlpha          ....  0.666667
   Becke's b parameter  XBeta           ....  0.004200
 Correlation Functional Correlation     .... LYP
 LDA part of GGA corr.  LDAOpt          .... VWN-5
 Gradients option       PostSCFGGA      .... off
 Hybrid DFT is turned on
   Fraction HF Exchange ScalHFX         ....  0.200000
   Scaling of DF-GGA-X  ScalDFX         ....  0.720000
   Scaling of DF-GGA-C  ScalDFC         ....  0.810000
   Scaling of DF-LDA-C  ScalLDAC        ....  1.000000
   Perturbative correction              ....  0.000000
   NL short-range parameter             ....  4.800000
 RI-approximation to the Coulomb term is turned on
   Number of AuxJ basis functions       .... 404
   RIJ-COSX (HFX calculated with COS-X)).... on


General Settings:
 Integral files         IntName         .... orca
 Hartree-Fock type      HFTyp           .... RHF
 Total Charge           Charge          ....    0
 Multiplicity           Mult            ....    1
 Number of Electrons    NEL             ....   46
 Basis Dimension        Dim             ....  134
 Nuclear Repulsion      ENuc            ....    215.7521381875 Eh

Convergence Acceleration:
 AO-DIIS                CNVDIIS         .... on
   Start iteration      DIISMaxIt       ....    12
   Startup error        DIISStart       ....  0.200000
   # of expansion vecs  DIISMaxEq       ....     5
   Bias factor          DIISBfac        ....   1.050
   Max. coefficient     DIISMaxC        ....  10.000
 MO-DIIS                CNVKDIIS        .... off
 Trust-Rad. Augm. Hess. CNVTRAH         .... auto
   Auto Start mean grad. ratio tolernc. ....  1.125000
   Auto Start start iteration           ....    50
   Auto Start num. interpolation iter.  ....    10
   Max. Number of Micro iterations      ....    24
   Max. Number of Macro iterations      .... Maxiter - #DIIS iter
   Number of Davidson start vectors     ....     2
   Converg. threshold    (grad. norm)   ....   1.000e-05
   Grad. Scal. Fac. for Micro threshold ....   0.100
   Minimum threshold for Micro iter.    ....   1.000e-02
   NR start threshold (gradient norm)   ....   1.000e-04
   Initial trust radius                 ....   0.400
   Minimum AH scaling param. (alpha)    ....   1.000
   Maximum AH scaling param. (alpha)    .... 1000.000
   Quad. conv. algorithm                .... NR
   White noise on init. David. guess    .... on
   Maximum white noise                  ....   0.010
   Pseudo random numbers                .... off
   Inactive MOs                         .... canonical
   Orbital update algorithm             .... Taylor
   Preconditioner                       .... Diag
   Full preconditioner red. dimension   ....   250
 SOSCF                 CNVSOSCF           .... on
   Start iteration     SOSCFMaxIt         ....   150
   Startup grad/error  SOSCFStart         ....  0.003300
   Hessian update      SOSCFHessUp        .... L-BFGS
   Autom. constraints  SOSCFAutoConstrain .... off
 Level Shifting         CNVShift        .... on
   Level shift para.    LevelShift      ....    0.2500
   Turn off err/grad.   ShiftErr        ....    0.0010
 Zerner damping         CNVZerner       .... off
 Static damping         CNVDamp         .... on
   Fraction old density DampFac         ....    0.7000
   Max. Damping (<1)    DampMax         ....    0.9800
   Min. Damping (>=0)   DampMin         ....    0.0000
   Turn off err/grad.   DampErr         ....    0.1000

SCF Procedure:
 Maximum # iterations   MaxIter         ....   125
 SCF integral mode      SCFMode         .... Direct
   Integral package                     .... SHARK and LIBINT hybrid scheme
 Reset frequency        DirectResetFreq ....    20
 Integral Threshold     Thresh          ....  2.500e-11 Eh
 Primitive CutOff       TCut            ....  2.500e-12 Eh

Convergence Tolerance:
 Convergence Check Mode ConvCheckMode   .... Total+1el-Energy
 Convergence forced     ConvForced      .... 0
 Energy Change          TolE            ....  1.000e-08 Eh
 1-El. energy change                    ....  1.000e-05 Eh
 Orbital Gradient       TolG            ....  1.000e-05
 Orbital Rotation angle TolX            ....  1.000e-05
 DIIS Error             TolErr          ....  5.000e-07

------------------------------
INITIAL GUESS: MODEL POTENTIAL
------------------------------
Loading Hartree-Fock densities                     ... done
Calculating cut-offs                               ... done
Initializing the effective Hamiltonian             ... done
Setting up the integral package (SHARK)            ... done
Starting the Coulomb interaction                   ... done (   0.0 sec)
Making the grid                                    ... done (   0.1 sec)
Mapping shells                                     ... done
Starting the XC term evaluation                    ... done (   0.0 sec)
  promolecular density results
     # of electrons  =     45.993288165
     EX              =    -33.744611742
     EC              =     -1.464270913
     EX+EC           =    -35.208882655
Transforming the Hamiltonian                       ... done (   0.0 sec)
Diagonalizing the Hamiltonian                      ... done (   0.0 sec)
Back transforming the eigenvectors                 ... done (   0.0 sec)
Now organizing SCF variables                       ... done
                      ------------------
                      INITIAL GUESS DONE (   0.2 sec)
                      ------------------
             **** ENERGY FILE WAS UPDATED (orca.en.tmp) ****
Finished Guess after   0.3 sec
Maximum memory used throughout the entire GUESS-calculation: 8.5 MB


           ************************************************************
           *        Program running with 6 parallel MPI-processes     *
           *              working on a common directory               *
           ************************************************************

-------------------------------------------------------------------------------------------
                                      ORCA LEAN-SCF
                              memory conserving SCF solver
-------------------------------------------------------------------------------------------

----------------------------------------D-I-I-S--------------------------------------------
Iteration    Energy (Eh)           Delta-E    RMSDP     MaxDP     DIISErr   Damp  Time(sec)
-------------------------------------------------------------------------------------------
               ***  Starting incremental Fock matrix formation  ***
    1    -234.0945126049551845     0.00e+00  8.02e-03  6.47e-02  1.48e-01  0.700   0.8
    2    -234.1765624626886506    -8.20e-02  5.92e-03  4.22e-02  8.24e-02  0.700   0.5
                               ***Turning on AO-DIIS***
    3    -234.2124318447527003    -3.59e-02  2.49e-03  1.33e-02  3.51e-02  0.700   0.5
    4    -234.2327702483560756    -2.03e-02  4.43e-03  2.25e-02  1.83e-02  0.000   0.5
    5    -234.2759707478294899    -4.32e-02  6.97e-04  3.51e-03  5.32e-03  0.000   0.5
                              *** Initializing SOSCF ***
---------------------------------------S-O-S-C-F--------------------------------------
Iteration    Energy (Eh)           Delta-E    RMSDP     MaxDP     MaxGrad    Time(sec)
--------------------------------------------------------------------------------------
    6    -234.2762019383094412    -2.31e-04  2.82e-04  1.43e-03  1.39e-03     0.5
               *** Restarting incremental Fock matrix formation ***
    7    -234.2762581594857920    -5.62e-05  1.99e-04  1.30e-03  3.22e-04     0.9
    8    -234.2762559748620674     2.18e-06  8.07e-05  8.22e-04  6.27e-04     0.6
    9    -234.2762604951106482    -4.52e-06  4.14e-05  2.19e-04  6.59e-05     0.6
   10    -234.2762604468522909     4.83e-08  2.10e-05  1.24e-04  5.93e-05     0.6
   11    -234.2762606409841055    -1.94e-07  2.22e-06  1.27e-05  4.18e-06     0.6
   12    -234.2762606423083867    -1.32e-09  1.10e-06  9.85e-06  7.24e-06     0.5
                 **** Energy Check signals convergence ****

               *****************************************************
               *                     SUCCESS                       *
               *           SCF CONVERGED AFTER  12 CYCLES          *
               *****************************************************

Recomputing exchange energy using gridx3       ... done (    1.214 sec)
Old exchange energy                            :     -6.903542210 Eh
New exchange energy                            :     -6.903547712 Eh
Exchange energy change after final integration :     -0.000005502 Eh
Total energy after final integration           :   -234.276266144 Eh
             **** ENERGY FILE WAS UPDATED (orca.en.tmp) ****

----------------
TOTAL SCF ENERGY
----------------

Total Energy       :       -234.27626614390314 Eh           -6374.98130 eV

Components:
Nuclear Repulsion  :        215.75213818753912 Eh            5870.91415 eV
Electronic Energy  :       -450.02839882986945 Eh          -12245.89530 eV
One Electron Energy:       -740.83302438622150 Eh          -20159.09146 eV
Two Electron Energy:        290.80462555635205 Eh            7913.19616 eV

Virial components:
Potential Energy   :       -465.71865989916398 Eh          -12672.84901 eV
Kinetic Energy     :        231.44239375526087 Eh            6297.86771 eV
Virial Ratio       :          2.01224439629517

DFT components:
N(Alpha)           :       23.000031422979 electrons
N(Beta)            :       23.000031422979 electrons
N(Total)           :       46.000062845958 electrons
E(X)               :      -27.359529316087 Eh       
E(C)               :       -1.741930212434 Eh       
E(XC)              :      -29.101459528521 Eh       

---------------
SCF CONVERGENCE
---------------

  Last Energy change         ...    1.3243e-09  Tolerance :   1.0000e-08
  Last MAX-Density change    ...    9.8505e-06  Tolerance :   1.0000e-07
  Last RMS-Density change    ...    1.0989e-06  Tolerance :   5.0000e-09
  Last DIIS Error            ...    1.3885e-03  Tolerance :   5.0000e-07
  Last Orbital Gradient      ...    7.2395e-06  Tolerance :   1.0000e-05
  Last Orbital Rotation      ...    1.0819e-05  Tolerance :   1.0000e-05


----------------
ORBITAL ENERGIES
----------------

  NO   OCC          E(Eh)            E(eV) 
   0   2.0000     -10.188142      -277.2334 
   1   2.0000     -10.188081      -277.2318 
   2   2.0000     -10.187611      -277.2190 
   3   2.0000     -10.183340      -277.1028 
   4   2.0000     -10.178917      -276.9824 
   5   2.0000     -10.176084      -276.9053 
   6   2.0000      -0.803942       -21.8764 
   7   2.0000      -0.758484       -20.6394 
   8   2.0000      -0.703598       -19.1459 
   9   2.0000      -0.623681       -16.9712 
  10   2.0000      -0.553395       -15.0587 
  11   2.0000      -0.536162       -14.5897 
  12   2.0000      -0.470537       -12.8040 
  13   2.0000      -0.456326       -12.4172 
  14   2.0000      -0.430870       -11.7246 
  15   2.0000      -0.428394       -11.6572 
  16   2.0000      -0.392017       -10.6673 
  17   2.0000      -0.367743       -10.0068 
  18   2.0000      -0.362148        -9.8546 
  19   2.0000      -0.336125        -9.1464 
  20   2.0000      -0.329247        -8.9593 
  21   2.0000      -0.262884        -7.1534 
  22   2.0000      -0.251041        -6.8312 
  23   0.0000       0.009814         0.2671 
  24   0.0000       0.018429         0.5015 
  25   0.0000       0.075781         2.0621 
  26   0.0000       0.087004         2.3675 
  27   0.0000       0.094585         2.5738 
  28   0.0000       0.097659         2.6574 
  29   0.0000       0.114362         3.1119 
  30   0.0000       0.134615         3.6631 
  31   0.0000       0.149404         4.0655 
  32   0.0000       0.154640         4.2080 
  33   0.0000       0.158818         4.3217 
*Only the first 10 virtual orbitals were printed.

                    ********************************
                    * MULLIKEN POPULATION ANALYSIS *
                    ********************************

-----------------------
MULLIKEN ATOMIC CHARGES
-----------------------
   0 C :   -0.025839
   1 C :   -0.089511
   2 H :    0.013772
   3 H :    0.018561
   4 C :    0.086788
   5 H :   -0.003393
   6 C :    0.060330
   7 H :    0.009227
   8 H :   -0.000757
   9 C :   -0.074076
  10 H :    0.010783
  11 H :   -0.006069
  12 C :   -0.033185
  13 H :    0.005577
  14 H :    0.009700
  15 H :    0.018091
Sum of atomic charges:    0.0000000

--------------------------------
MULLIKEN REDUCED ORBITAL CHARGES
--------------------------------
  0 C s       :     3.103923  s :     3.103923
      pz      :     0.941979  p :     2.895286
      px      :     0.971265
      py      :     0.982042
      dz2     :     0.002985  d :     0.026631
      dxz     :     0.003744
      dyz     :     0.008099
      dx2y2   :     0.006201
      dxy     :     0.005602

  1 C s       :     3.171778  s :     3.171778
      pz      :     0.953139  p :     2.881892
      px      :     0.960283
      py      :     0.968470
      dz2     :     0.005101  d :     0.035841
      dxz     :     0.005047
      dyz     :     0.010028
      dx2y2   :     0.008259
      dxy     :     0.007406

  2 H s       :     0.962896  s :     0.962896
      pz      :     0.010438  p :     0.023332
      px      :     0.004890
      py      :     0.008004

  3 H s       :     0.958098  s :     0.958098
      pz      :     0.008748  p :     0.023341
      px      :     0.009424
      py      :     0.005169

  4 C s       :     2.971522  s :     2.971522
      pz      :     0.987073  p :     2.905475
      px      :     0.941669
      py      :     0.976733
      dz2     :     0.004906  d :     0.036214
      dxz     :     0.008593
      dyz     :     0.008634
      dx2y2   :     0.007906
      dxy     :     0.006175

  5 H s       :     0.980941  s :     0.980941
      pz      :     0.010495  p :     0.022452
      px      :     0.004639
      py      :     0.007318

  6 C s       :     2.984462  s :     2.984462
      pz      :     0.971307  p :     2.918895
      px      :     0.963720
      py      :     0.983868
      dz2     :     0.004031  d :     0.036313
      dxz     :     0.007766
      dyz     :     0.009698
      dx2y2   :     0.006908
      dxy     :     0.007912

  7 H s       :     0.968311  s :     0.968311
      pz      :     0.005790  p :     0.022462
      px      :     0.005115
      py      :     0.011558

  8 H s       :     0.978757  s :     0.978757
      pz      :     0.009960  p :     0.022000
      px      :     0.003919
      py      :     0.008120

  9 C s       :     3.165344  s :     3.165344
      pz      :     0.957941  p :     2.873053
      px      :     0.952819
      py      :     0.962293
      dz2     :     0.003370  d :     0.035679
      dxz     :     0.007352
      dyz     :     0.006046
      dx2y2   :     0.008532
      dxy     :     0.010379

 10 H s       :     0.966775  s :     0.966775
      pz      :     0.010201  p :     0.022441
      px      :     0.004507
      py      :     0.007733

 11 H s       :     0.984046  s :     0.984046
      pz      :     0.008090  p :     0.022023
      px      :     0.007440
      py      :     0.006493

 12 C s       :     3.102587  s :     3.102587
      pz      :     0.979175  p :     2.903935
      px      :     0.984644
      py      :     0.940116
      dz2     :     0.002422  d :     0.026664
      dxz     :     0.006457
      dyz     :     0.003262
      dx2y2   :     0.006526
      dxy     :     0.007997

 13 H s       :     0.971745  s :     0.971745
      pz      :     0.008381  p :     0.022678
      px      :     0.007075
      py      :     0.007221

 14 H s       :     0.967029  s :     0.967029
      pz      :     0.008663  p :     0.023271
      px      :     0.007413
      py      :     0.007196

 15 H s       :     0.958600  s :     0.958600
      pz      :     0.005718  p :     0.023309
      px      :     0.005705
      py      :     0.011886



                     *******************************
                     * LOEWDIN POPULATION ANALYSIS *
                     *******************************

----------------------
LOEWDIN ATOMIC CHARGES
----------------------
   0 C :   -0.063674
   1 C :   -0.027433
   2 H :    0.020879
   3 H :    0.022926
   4 C :   -0.027847
   5 H :    0.021942
   6 C :   -0.028932
   7 H :    0.030382
   8 H :    0.024847
   9 C :   -0.024591
  10 H :    0.027999
  11 H :    0.024465
  12 C :   -0.065904
  13 H :    0.024118
  14 H :    0.018478
  15 H :    0.022345

-------------------------------
LOEWDIN REDUCED ORBITAL CHARGES
-------------------------------
  0 C s       :     2.887665  s :     2.887665
      pz      :     1.026377  p :     3.106551
      px      :     1.022997
      py      :     1.057177
      dz2     :     0.008335  d :     0.069458
      dxz     :     0.009571
      dyz     :     0.021137
      dx2y2   :     0.014992
      dxy     :     0.015423

  1 C s       :     2.882696  s :     2.882696
      pz      :     1.006704  p :     3.055618
      px      :     0.988098
      py      :     1.060816
      dz2     :     0.013045  d :     0.089120
      dxz     :     0.012163
      dyz     :     0.025157
      dx2y2   :     0.019344
      dxy     :     0.019412

  2 H s       :     0.912326  s :     0.912326
      pz      :     0.030676  p :     0.066795
      px      :     0.014233
      py      :     0.021886

  3 H s       :     0.910155  s :     0.910155
      pz      :     0.025684  p :     0.066919
      px      :     0.027357
      py      :     0.013878

  4 C s       :     2.840897  s :     2.840897
      pz      :     1.038688  p :     3.097592
      px      :     1.010556
      py      :     1.048348
      dz2     :     0.010575  d :     0.089358
      dxz     :     0.022416
      dyz     :     0.022293
      dx2y2   :     0.020082
      dxy     :     0.013993

  5 H s       :     0.912446  s :     0.912446
      pz      :     0.030937  p :     0.065612
      px      :     0.014296
      py      :     0.020379

  6 C s       :     2.840858  s :     2.840858
      pz      :     1.046574  p :     3.098554
      px      :     1.015706
      py      :     1.036274
      dz2     :     0.009135  d :     0.089520
      dxz     :     0.019863
      dyz     :     0.024143
      dx2y2   :     0.017307
      dxy     :     0.019071

  7 H s       :     0.905347  s :     0.905347
      pz      :     0.015827  p :     0.064271
      px      :     0.015654
      py      :     0.032790

  8 H s       :     0.911241  s :     0.911241
      pz      :     0.029351  p :     0.063912
      px      :     0.012132
      py      :     0.022429

  9 C s       :     2.880765  s :     2.880765
      pz      :     0.983617  p :     3.055149
      px      :     1.059663
      py      :     1.011869
      dz2     :     0.008083  d :     0.088677
      dxz     :     0.018232
      dyz     :     0.013274
      dx2y2   :     0.021749
      dxy     :     0.027339

 10 H s       :     0.907885  s :     0.907885
      pz      :     0.029132  p :     0.064116
      px      :     0.012995
      py      :     0.021989

 11 H s       :     0.911735  s :     0.911735
      pz      :     0.022580  p :     0.063800
      px      :     0.022482
      py      :     0.018738

 12 C s       :     2.887004  s :     2.887004
      pz      :     1.019434  p :     3.109208
      px      :     1.059834
      py      :     1.029939
      dz2     :     0.006338  d :     0.069693
      dxz     :     0.016327
      dyz     :     0.007924
      dx2y2   :     0.017021
      dxy     :     0.022084

 13 H s       :     0.908961  s :     0.908961
      pz      :     0.024719  p :     0.066921
      px      :     0.019776
      py      :     0.022425

 14 H s       :     0.914897  s :     0.914897
      pz      :     0.025599  p :     0.066625
      px      :     0.020000
      py      :     0.021026

 15 H s       :     0.910734  s :     0.910734
      pz      :     0.017100  p :     0.066921
      px      :     0.015292
      py      :     0.034530



                      *****************************
                      * MAYER POPULATION ANALYSIS *
                      *****************************

  NA   - Mulliken gross atomic population
  ZA   - Total nuclear charge
  QA   - Mulliken gross atomic charge
  VA   - Mayer's total valence
  BVA  - Mayer's bonded valence
  FA   - Mayer's free valence

  ATOM       NA         ZA         QA         VA         BVA        FA
  0 C      6.0258     6.0000    -0.0258     3.9477     3.9477     0.0000
  1 C      6.0895     6.0000    -0.0895     4.1073     4.1073    -0.0000
  2 H      0.9862     1.0000     0.0138     0.9852     0.9852    -0.0000
  3 H      0.9814     1.0000     0.0186     0.9738     0.9738     0.0000
  4 C      5.9132     6.0000     0.0868     3.9629     3.9629     0.0000
  5 H      1.0034     1.0000    -0.0034     0.9809     0.9809     0.0000
  6 C      5.9397     6.0000     0.0603     3.9802     3.9802    -0.0000
  7 H      0.9908     1.0000     0.0092     0.9756     0.9756     0.0000
  8 H      1.0008     1.0000    -0.0008     0.9923     0.9923     0.0000
  9 C      6.0741     6.0000    -0.0741     4.0859     4.0859     0.0000
 10 H      0.9892     1.0000     0.0108     0.9787     0.9787    -0.0000
 11 H      1.0061     1.0000    -0.0061     0.9881     0.9881     0.0000
 12 C      6.0332     6.0000    -0.0332     3.9557     3.9557     0.0000
 13 H      0.9944     1.0000     0.0056     0.9941     0.9941    -0.0000
 14 H      0.9903     1.0000     0.0097     0.9839     0.9839    -0.0000
 15 H      0.9819     1.0000     0.0181     0.9743     0.9743     0.0000

  Mayer bond orders larger than 0.100000
B(  0-C ,  1-C ) :   2.0096 B(  0-C ,  2-H ) :   0.9522 B(  0-C ,  3-H ) :   0.9493 
B(  1-C ,  4-C ) :   1.0529 B(  1-C ,  5-H ) :   0.9589 B(  4-C ,  6-C ) :   1.0606 
B(  4-C ,  7-H ) :   0.9216 B(  4-C ,  8-H ) :   0.9378 B(  6-C ,  9-C ) :   1.0468 
B(  6-C , 10-H ) :   0.9290 B(  6-C , 11-H ) :   0.9339 B(  9-C , 12-C ) :   2.0210 
B(  9-C , 13-H ) :   0.9586 B( 12-C , 14-H ) :   0.9511 B( 12-C , 15-H ) :   0.9511 


-------
TIMINGS
-------

Total SCF time: 0 days 0 hours 0 min 8 sec 

Total time                  ....       8.862 sec
Sum of individual times     ....       8.383 sec  ( 94.6%)

SCF preparation             ....       0.248 sec  (  2.8%)
Fock matrix formation       ....       7.865 sec  ( 88.7%)
  Startup                   ....       0.005 sec  (  0.1% of F)
  Split-RI-J                ....       0.684 sec  (  8.7% of F)
  Chain of spheres X        ....       5.864 sec  ( 74.6% of F)
  XC integration            ....       1.601 sec  ( 20.4% of F)
    XC Preparation          ....       0.000 sec  (  0.0% of XC)
    Basis function eval.    ....       0.462 sec  ( 28.8% of XC)
    Density eval.           ....       0.249 sec  ( 15.6% of XC)
    XC-Functional eval.     ....       0.086 sec  (  5.4% of XC)
    XC-Potential eval.      ....       0.267 sec  ( 16.7% of XC)
Diagonalization             ....       0.000 sec  (  0.0%)
Density matrix formation    ....       0.052 sec  (  0.6%)
Total Energy calculation    ....       0.016 sec  (  0.2%)
Population analysis         ....       0.021 sec  (  0.2%)
Orbital Transformation      ....       0.018 sec  (  0.2%)
Orbital Orthonormalization  ....       0.000 sec  (  0.0%)
DIIS solution               ....       0.088 sec  (  1.0%)
SOSCF solution              ....       0.076 sec  (  0.9%)
Finished LeanSCF after   8.9 sec

Maximum memory used throughout the entire LEANSCF-calculation: 11.9 MB


-------------------------------------------------------------------------------
                          DFT DISPERSION CORRECTION                            
                                                                               
                              DFTD3 V3.1  Rev 1                                
                          USING Becke-Johnson damping                          
-------------------------------------------------------------------------------
The B3LYP functional is recognized
Active option DFTDOPT                   ...         4   

molecular C6(AA) [au] = 2145.190297 


            DFT-D V3
 parameters
 s6 scaling factor         :     1.0000 
 a1 scaling factor         :     0.3981 
 s8 scaling factor         :     1.9889 
 a2 scaling factor         :     4.4211 
 ad hoc parameters k1-k3   :    16.0000     1.3333    -4.0000 

 Edisp/kcal,au: -13.166418832074  -0.020982021741 
 E6   /kcal   :  -6.410291379 
 E8   /kcal   :  -6.756127453 
 % E8         :  51.313326265 

-------------------------   ----------------
Dispersion correction           -0.020982022
-------------------------   ----------------


-------------------------   --------------------
FINAL SINGLE POINT ENERGY      -234.297248165644
-------------------------   --------------------



           ************************************************************
           *        Program running with 6 parallel MPI-processes     *
           *              working on a common directory               *
           ************************************************************
------------------------------------------------------------------------------
                         ORCA SCF GRADIENT CALCULATION
------------------------------------------------------------------------------

Nuc. rep. gradient        (SHARK) ... done (  0.0 sec)
HCore & Overlap gradient  (SHARK) ... done (  0.0 sec)
Split-RIJ-J gradient      (SHARK) ... done (  0.3 sec)
done (  4.2 sec)
XC gradient                       ... done (  1.0 sec)
Dispersion correction             ... done (  0.1 sec)

-------------------
DISPERSION GRADIENT
-------------------

   1   C   :   -0.000630476    0.000355132   -0.000031933
   2   C   :   -0.000566088   -0.000029896   -0.000023932
   3   H   :   -0.000191457    0.000213967    0.000062077
   4   H   :   -0.000150904    0.000113022   -0.000050525
   5   C   :   -0.000183375   -0.000271442    0.000213389
   6   H   :   -0.000259324   -0.000088214   -0.000154298
   7   C   :    0.000191503   -0.000306393    0.000008660
   8   H   :   -0.000078135   -0.000216502    0.000172254
   9   H   :   -0.000098633   -0.000045466    0.000302279
  10   C   :    0.000605249    0.000115594   -0.000194250
  11   H   :    0.000083894   -0.000259169   -0.000126718
  12   H   :    0.000121498   -0.000215108    0.000075903
  13   C   :    0.000552659    0.000276073   -0.000054688
  14   H   :    0.000231063    0.000181568   -0.000233636
  15   H   :    0.000231020    0.000062904    0.000051283
  16   H   :    0.000141506    0.000113929   -0.000015865

Difference to translation invariance:
           :    0.0000000000    0.0000000000    0.0000000000

Difference to rotation invariance:
           :    0.0000000000    0.0000000000   -0.0000000000

Norm of the Dispersion gradient    ...    0.0016529813
RMS gradient                       ...    0.0002385873
MAX gradient                       ...    0.0006304760

------------------
CARTESIAN GRADIENT
------------------

   1   C   :   -0.000016240   -0.000059063    0.000111642
   2   C   :    0.000010625    0.000050644   -0.000030637
   3   H   :   -0.000013206    0.000040269   -0.000017471
   4   H   :   -0.000006282   -0.000019812   -0.000059947
   5   C   :   -0.000015934    0.000041982    0.000057953
   6   H   :    0.000035341   -0.000038077   -0.000009123
   7   C   :   -0.000050674    0.000047332    0.000029835
   8   H   :   -0.000019059   -0.000043222    0.000017260
   9   H   :    0.000019137   -0.000041091    0.000003539
  10   C   :    0.000213801    0.000016774    0.000065741
  11   H   :   -0.000026107   -0.000005432   -0.000059471
  12   H   :   -0.000008365   -0.000034513    0.000019280
  13   C   :   -0.000129640    0.000065097   -0.000054875
  14   H   :   -0.000042567    0.000078595   -0.000075846
  15   H   :    0.000047477   -0.000025153    0.000008070
  16   H   :    0.000001692   -0.000074331   -0.000005949

Difference to translation invariance:
           :    0.0000000000    0.0000000000   -0.0000000000

Difference to rotation invariance:
           :   -0.0000169540    0.0001355584    0.0001131836

Norm of the Cartesian gradient     ...    0.0003832995
RMS gradient                       ...    0.0000553245
MAX gradient                       ...    0.0002138015

-------
TIMINGS
-------

Total SCF gradient time     ....        5.555 sec

Densities                   ....       0.000 sec  (  0.0%)
One electron gradient       ....       0.045 sec  (  0.8%)
RI-J Coulomb gradient       ....       0.257 sec  (  4.6%)
COSX gradient               ....       4.242 sec  ( 76.4%)
XC gradient                 ....       0.956 sec  ( 17.2%)

Maximum memory used throughout the entire SCFGRAD-calculation: 28.5 MB


           ************************************************************
           *        Program running with 6 parallel MPI-processes     *
           *              working on a common directory               *
           ************************************************************

------------------------------------------------------------------------------
                              ORCA PROPERTY CALCULATIONS
------------------------------------------------------------------------------

GBWName                                 ... orca.gbw
Number of atoms                         ...     16
Number of basis functions               ...    134
Max core memory                         ...   4096 MB

Electric properties:
Dipole moment                           ... YES
Quadrupole moment                       ...  NO
Static polarizability (Dipole/Dipole)   ...  NO
Static polarizability (Dipole/Quad.)    ...  NO
Static polarizability (Quad./Quad.)     ...  NO
Static polarizability (Velocity)        ...  NO
Static hyperpolarizability              ...  NO

Atomic electric properties:
Dipole moment                           ...  NO
Quadrupole moment                       ...  NO
Static polarizability                   ...  NO

Choice of electric origin               ... Center of mass
Position of electric origin             ...    -1.381756     0.440438    -0.017669

General magnetic properties:
Magnetizability                         ...  NO

EPR properties:
g-Tensor (aka g-matrix)                 ...  NO
Zero-Field splitting spin-orbit         ...  NO
Zero-field splitting spin-spin          ...  NO
Hyperfine couplings                     ...  NO (   0 nuclei)
Quadrupole couplings                    ...  NO (   0 nuclei)
Contact density                         ...  NO (   0 nuclei)

NMR properties:
Chemical shifts                         ...  NO (   0 nuclei)
Spin-rotation constants                 ...  NO (   0 nuclei)
Spin-spin couplings                     ...  NO (   0 nuclei,    0 pairs)

Choice of magnetic origin               ... GIAO
Position of magnetic origin             ...     0.000000     0.000000     0.000000

Properties with geometric perturbations:
SCF Hessian                             ...  NO
IR spectrum                             ...  NO
VCD spectrum                            ...  NO
X-ray spectroscopy properties:
SCF XES/XAS/RIXS spectra                ...  NO

SCF SOC stabilization energy            ...  NO
Diagonal Born-Oppenheimer correction    ...  NO

-------------
DIPOLE MOMENT
-------------

Method             : SCF
Type of density    : Electron Density
Multiplicity       :   1
Irrep              :   0
Energy             :  -234.2762661439031433 Eh
Basis              : AO
                                X                 Y                 Z
Electronic contribution:     -0.296656695       0.028644699      -0.485508709
Nuclear contribution   :      0.242689422      -0.186795179       0.501582605
                        -----------------------------------------
Total Dipole Moment    :     -0.053967273      -0.158150480       0.016073896
                        -----------------------------------------
Magnitude (a.u.)       :      0.167876178
Magnitude (Debye)      :      0.426707333



--------------------
Rotational spectrum 
--------------------
 
Rotational constants in cm-1:             0.233053             0.062693             0.054150 
Rotational constants in MHz :          6986.758920          1879.494931          1623.384819 

Dipole components along the rotational axes: 
x,y,z [a.u.] :    -0.053394    -0.156288    -0.030094 
x,y,z [Debye]:    -0.135717    -0.397252    -0.076493 

 

Dipole moment calculation done in   0.0 sec 

Maximum memory used throughout the entire PROP-calculation: 6.6 MB

--------------------------------
SUGGESTED CITATIONS FOR THIS RUN
--------------------------------

Below you find a list of papers that are relevant to this ORCA run
We neither can nor want to force you to cite these papers, but we appreciate if you do
You receive ORCA, which is the product of decades of hard work by many enthusiastic individuals, for free
The only thing we kindly ask in return is that you cite our papers,
We deeply appreciate it, if you show your appreciation for ORCA by not just citing the generic ORCA reference.

Please note that relegating all ORCA citations to the supporting information does *not* help us.
SI sections are not indexed - citations you put there will not count into any citation statistics
But we need these citations in order to attract the funding resources that allow us to do what we are doing

Therefore, if you are a happy ORCA user, please consider citing a few of the papers listed below in the main body of your paper

In addition to the list printed below, the program has created the file orca.bibtex that contains the list in bibtex format
You can import this file easily into all common literature databanks and citation aid programs


List of essential papers. We consider these as the minimum necessary citations

  1. Neese, F.
     Software update: the ORCA program system, version 6.0
     WIRES Comput. Molec. Sci. 2025 15(1), e70019
     doi.org/10.1002/wcms.7019

List of papers to cite with high priority. The work reported in these papers was absolutely
necessary for this run to complete.
Our perspective: the developers of density functionals and basis sets usually get cited in chemistry papers
Good! But without the algorithms to do something with them, the functionals or basis sets would not do anything.
Hence, in our opinion, the algorithm design and method developments papers are equally worthy of getting cited

  1. Neese, F.
     An improvement of the resolution of the identity approximation for the formation of the Coulomb matrix
     J. Comp. Chem. 2003 24(14), 1740-1747
     doi.org/10.1002/jcc.10318
  2. Neese, F.; Wennmohs, F.; Hansen, A.; Becker, U.
     Efficient, approximate and parallel Hartree-Fock and hybrid DFT calculations. A 'chain-of-spheres' algorithm for the Hartree-Fock exchange
     Chem. Phys. 2009 356(1-3), 98-109
     doi.org/10.1016/j.chemphys.2008.10.036
  3. Grimme, S.; Antony, J.; Ehrlich, S.; Krieg, H.
     A consistent and accurate ab initio parametrization of density functional dispersion correction (DFT-D) for the 94 elements H-Pu
     J. Chem. Phys. 2010 132 , 154104
     doi.org/10.1063/1.3382344
  4. Grimme, S.; Ehrlich, S.; Goerigk, L.
     Effect of the damping function in dispersion corrected density functional theory
     J. Comput. Chem. 2011 32(7), 1456-1465
     doi.org/10.1002/jcc.21759
  5. Helmich-Paris, B.; de Souza, B.; Neese, F.; Izsák, R.
     An improved chain of spheres for exchange algorithm
     J. Chem. Phys. 2021 155(10), 104109
     doi.org/10.1063/5.0058766
  6. Neese, F.
     The SHARK Integral Generation and Digestion System
     J. Comp. Chem. 2022 44(3), 381
     doi.org/10.1002/jcc.26942

List of suggested additional citations. These are papers that are important in the 'surrounding' of 
of this run, or papers that preceded the highly important papers. If you like your results we are grateful for a citation.

  1. Izsak, R.; Neese, F.
     An overlap fitted chain of spheres exchange method
     J. Chem. Phys. 2011 135 , 144105
     doi.org/10.1063/1.3646921
  2. Izsak, R.; Hansen, A.; Neese, F.
     The resolution of identity and chain of spheres approximations for the LPNO-CCSD singles Fock term
     Molec. Phys. 2012 110 , 2413-2417
     doi.org/10.1080/00268976.2012.687466
  3. Neese, F.
     The ORCA program system
     WIRES Comput. Molec. Sci. 2012 2(1), 73-78
     doi.org/10.1002/wcms.81
  4. Izsak, R.; Neese, F.; Klopper, W.
     Robust fitting techniques in the chain of spheres approximation to the Fock exchange: The role of the complementary space
     J. Chem. Phys. 2013 139 , 
     doi.org/10.1063/1.4819264
  5. Neese, F.
     Software update: the ORCA program system, version 4.0
     WIRES Comput. Molec. Sci. 2018 8(1), 1-6
     doi.org/10.1002/wcms.1327
  6. Neese, F.; Wennmohs, F.; Becker, U.; Riplinger, C.
     The ORCA quantum chemistry program package
     J. Chem. Phys. 2020 152(22), 224108
     doi.org/10.1063/5.0004608
  7. Neese, F.
     Software update: The ORCA program system—Version 5.0
     WIRES Comput. Molec. Sci. 2022 12(1), e1606
     doi.org/10.1002/wcms.1606

List of optional additional citations

  1. Neese, F.
     Approximate second-order SCF convergence for spin unrestricted wavefunctions
     Chem. Phys. Lett. 2000 325(1-3), 93-98
     doi.org/10.1016/s0009-2614(00)00662-x

Timings for individual modules:

Sum of individual times          ...       17.772 sec (=   0.296 min)
Startup calculation              ...        1.415 sec (=   0.024 min)   8.0 %
SCF iterations                   ...        9.825 sec (=   0.164 min)  55.3 %
Property calculations            ...        0.525 sec (=   0.009 min)   3.0 %
SCF Gradient evaluation          ...        6.008 sec (=   0.100 min)  33.8 %
                             ****ORCA TERMINATED NORMALLY****
TOTAL RUN TIME: 0 days 0 hours 0 minutes 18 seconds 305 msec
