
                                 *****************
                                 * O   R   C   A *
                                 *****************

                                            #,                                       
                                            ###                                      
                                            ####                                     
                                            #####                                    
                                            ######                                   
                                           ########,                                 
                                     ,,################,,,,,                         
                               ,,#################################,,                 
                          ,,##########################################,,             
                       ,#########################################, ''#####,          
                    ,#############################################,,   '####,        
                  ,##################################################,,,,####,       
                ,###########''''           ''''###############################       
              ,#####''   ,,,,##########,,,,          '''####'''          '####       
            ,##' ,,,,###########################,,,                        '##       
           ' ,,###''''                  '''############,,,                           
         ,,##''                                '''############,,,,        ,,,,,,###''
      ,#''                                            '''#######################'''  
     '                                                          ''''####''''         
             ,#######,   #######,   ,#######,      ##                                
            ,#'     '#,  ##    ##  ,#'     '#,    #''#        ,####,    ,#,          
            ##       ##  ##   ,#'  ##            #'  '#       #'       ,# #          
            ##       ##  #######   ##           ,######,      #####,      #          
            '#,     ,#'  ##    ##  '#,     ,#' ,#      #,     #,   #      #          
             '#######'   ##     ##  '#######'  #'      '#     '####' #    #          



                #########################################################
                #                        -***-                          #
                #          Department of theory and spectroscopy        #
                #                                                       #
                #                      Frank Neese                      #
                #                                                       #
                #     Directorship, Architecture, Infrastructure        #
                #                    SHARK, DRIVERS                     #
                #        Core code/Algorithms in most modules           #
                #                                                       #
                #        Max Planck Institute fuer Kohlenforschung      #
                #                Kaiser Wilhelm Platz 1                 #
                #                 D-45470 Muelheim/Ruhr                 #
                #                      Germany                          #
                #                                                       #
                #                  All rights reserved                  #
                #                        -***-                          #
                #########################################################


                         Program Version 6.1.0  -  RELEASE   -
                                (GIT: $679e74b$)
                          ($2025-06-10 18:02:51 +0200$)


 With contributions from (in alphabetic order):
[Max-Planck-Institut fuer Kohlenforschung]                               
  Daniel Aravena         : Magnetic Suceptibility                        
  Michael Atanasov       : Ab Initio Ligand Field Theory (pilot matlab implementation)
  Alexander A. Auer      : GIAO ZORA, VPT2 properties, NMR spectrum      
  Ute Becker             : All parallelization in ORCA, NUMFREQ, NUMCALC 
  Giovanni Bistoni       : ED, misc. LED, open-shell LED, HFLD           
  Dmytro Bykov           : pre 5.0 version of the SCF Hessian            
  Marcos Casanova-Páez   : Triplet and SCS-CIS(D). UHF-(DLPNO)-IP/EA/STEOM-CCSD. UHF-CVS-IP/STEOM-CCSD   
  Vijay G. Chilkuri      : MRCI spin determinant printing, contributions to CSF-ICE 
  Pauline Colinet        : FMM embedding                                 
  Dipayan Datta          : RHF DLPNO-CCSD density                        
  Achintya Kumar Dutta   : EOM-CC, STEOM-CC                              
  Nicolas Foglia         : Exact transition moments, OPA infrastructure, MCD improvements    
  Dmitry Ganyushin       : Spin-Orbit,Spin-Spin,Magnetic field MRCI      
  Miquel Garcia-Rates    : C-PCM and meta-GGA Hessian, CCSD/C-PCM, Gaussian charge scheme 
  Tiago L. C. Gouveia    : GS-ROHF, GS-ROCIS                             
  Yang Guo               : DLPNO-NEVPT2, F12-NEVPT2, CIM, IAO-localization        
  Andreas Hansen         : Spin unrestricted coupled pair/coupled cluster methods 
  Ingolf Harden          : AUTO-CI MPn and infrastructure                
  Benjamin Helmich-Paris : MC-RPA, TRAH-(SCF,CASSCF), AVAS, COSX integrals, SCF dyn. polar., MC-PDFT, srDFT 
  Lee Huntington         : MR-EOM, pCC                                   
  Robert Izsak           : Overlap fitted RIJCOSX, COSX-SCS-MP3, EOM     
  Riya Kayal             : Wick's Theorem for AUTO-CI, AUTO-CI UHF-CCSDT 
  Emily Kempfer          : AUTO-CI RHF CISDT and CCSDT, approximate NEVPT4
  Christian Kollmar      : KDIIS, OOCD, Brueckner-CCSD(T), CCSD density, CASPT2, CASPT2-K, improved NEVPT2 
  Axel Koslowski         : Symmetry handling                             
  Simone Kossmann        : meta-GGA functionals, TD-DFT gradient, OOMP2, (MP2 Hessian; deprecated post 5.0) 
  Lucas Lang             : DCDCAS, Hyperfine gauge corrections, ICE-SOC+SSC
  Marvin Lechner         : AUTO-CI (C++ implementation), FIC-MRCC        
  Spencer Leger          : CASSCF response                               
  Dagmar Lenk            : GEPOL surface, SMD, ORCA-2-JSON               
  Dimitrios Liakos       : Extrapolation schemes; Compound Job, Property file
  Dimitrios Manganas     : Further ROCIS development; embedding schemes. LFT, Crystal Embedding 
  Dimitrios Pantazis     : SARC Basis sets                               
  Anastasios Papadopoulos: AUTO-CI, single reference methods and gradients 
  Taras Petrenko         : pre 6.0 DFT Hessian and TD-DFT gradient,  ECA, NRVS 
  Petra Pikulova         : Analytic Raman intensities                    
  Peter Pinski           : DLPNO-MP2, DLPNO-MP2 Gradient                 
  Shashank Vittal Rao    : ES-AILFT, MagRelax                            
  Christoph Reimann      : Effective Core Potentials                     
  Marius Retegan         : Local ZFS, SOC                                
  Christoph Riplinger    : Optimizer, TS searches, QM/MM, DLPNO-CCSD(T), (RO)-DLPNO pert. Triples 
  Michael Roemelt        : Original ROCIS implementation, recursive CI coupling coefficients
  Masaaki Saitow         : Open-shell DLPNO-CCSD energy and density      
  Barbara Sandhoefer     : DKH picture change effects                    
  Yorick L. A. Schmerwitz: GMF and freeze-and-release deltaSCF, NEB S-IDPP initial path                    
  Kantharuban Sivalingam : CASSCF convergence/infrastructure, NEVPT2, NEVPT3, NEVPT4(SD), FIC-MRCI and CEPA variants
  Bernardo de Souza      : ESD, SOC TD-DFT                               
  Georgi L. Stoychev     : AutoAux, RI-MP2 NMR, DLPNO-MP2 response, X2C  
  Van Anh Tran           : RI-MP2 g-tensors                              
  Willem Van den Heuvel  : Paramagnetic NMR                              
  Zikuan Wang            : NOTCH, Electric field optimization            
  Frank Wennmohs         : Technical directorship and infrastructure     
  Hang Xu                : AUTO-CI-Response properties                   
                                                                         
[FACCTs GmbH]                                                            
  Markus Bursch, Nicolas Foglia, Miquel Garcia-Rates, Ingolf Harden, Hagen Neugebauer, Anastasios Papadopoulos, 
  Christoph Riplinger, Bernardo de Souza, Georgi L. Stoychev                                                    
                                                                 
  APM, various basis sets, CI-OPT, improved COSX, DLPNO-Multilevel,           
  DOCKER, DRACO, updates on ESD, Fragmentator, GOAT, IRC, LR-CPCM, L-BFGS, MBIS, meta-GGA TD-DFT gradient, ML-optimized integration grids, 
  MM, NACMEs, nearIR, NEB, NEB-TS, NL-DFT gradient (VV10), 2- and 3-layer-ONIOM, interface openCOSMO-RS, QMMM,   
  Crystal-QMMM, RESP, rigid body optimization, SF, symmetry and pop. for TD-DFT, various functionals, SOLVATOR                                   
                                                                         
[Other institutions]                                                     
  V. Asgeirsson          : NEB                                           
  Christoph Bannwarth    : sTDA-DFT, sTD-DFT, PBEh-3c, B97-3c, D3        
  Giovanni Bistoni       : ETS/NOCV, ADLD/ADEX, COVALED                  
  Martin Brehm           : Molecular dynamics                            
  Ronald Cardenas        : ETS/NOCV                                      
  Martina Colucci        : COVALED                                       
  Sebastian Ehlert       : rSCAN, r2SCAN, r2SCAN-3c, D4, dhf basis sets  
  Marvin Friede          : D4 for Fr, Ra, Ac-Lr                          
  Lars Goerigk           : TD-DFT with DH, B97 family of functionals     
  Stefan Grimme          : VdW corrections, initial TS optimization, DFT functionals, gCP, sTDA/sTD-DF 
  Waldemar Hujo          : DFT-NL                                        
  H. Jonsson             : NEB                                           
  Holger Kruse           : gCP                                           
  Marcel Mueller         : wB97X-3c, vDZP basis set                      
  Hagen Neugebauer       : wr2SCAN, Native XTB                           
  Gianluca Regni         : ADLD/ADEX                                     
  Tobias Risthaus        : pre 6.0 range-separated hybrid DFT and stability analysis
  Lukas Wittmann         : regularized MP2, r2SCAN double-hybrids, wr2SCAN        
                                                                         
We gratefully acknowledge several colleagues who have allowed us to      
interface, adapt or use parts of their codes:                            
  Ed Valeev, F. Pavosevic, A. Kumar             : LibInt (2-el integral package), F12 methods 
  Garnet Chan, S. Sharma, J. Yang, R. Olivares  : DMRG                   
  Ulf Ekstrom                                   : XCFun DFT Library      
  Mihaly Kallay                                 : mrcc  (arbitrary order and MRCC methods)
  Frank Weinhold                                : gennbo (NPA and NBO analysis)           
  Simon Mueller                                 : openCOSMO-RS                            
  Christopher J. Cramer and Donald G. Truhlar   : smd solvation model                     
  S Lehtola, MJT Oliveira, MAL Marques          : LibXC Library                           
  Liviu Ungur et al                             : ANISO software                          


 Your calculation uses the libint2 library for the computation of 2-el integrals
 For citations please refer to: http://libint.valeyev.net

 Your ORCA version has been built with support for libXC version: 7.0.0
 For citations please refer to: https://libxc.gitlab.io

 This ORCA versions uses:
   CBLAS   interface :  Fast vector & matrix operations
   LAPACKE interface :  Fast linear algebra routines
   SCALAPACK package :  Parallel linear algebra routines
   Shared memory     :  Shared parallel matrices
   BLAS/LAPACK       :  OpenBLAS 0.3.29  USE64BITINT DYNAMIC_ARCH NO_AFFINITY Zen SINGLE_THREADED
        Core in use  :  Zen
   Copyright (c) 2011-2014, The OpenBLAS Project


  ***********************************
  * Starting time: Wed Sep 10 13:33:26 2025
  * Host name:     wyk-Server
  * Process ID:    2273030
  * Working dir.:  /home/wyk/Documents/code/openQDC/MGMR/singlepointcalc/4/prod
  ***********************************

Your calculation utilizes the atom-pairwise dispersion correction
with the Becke-Johnson damping scheme (D3BJ)


Warning: RI is on but no J-basis has been assigned. Assigning Def2/J (nothing to worry about!)
================================================================================

----- Orbital basis set information -----
Your calculation utilizes the basis: def2-SVP
   F. Weigend and R. Ahlrichs, Phys. Chem. Chem. Phys. 7, 3297 (2005).

----- AuxJ basis set information -----
Your calculation utilizes the auxiliary basis: def2/J
   H-Rn: F. Weigend, Phys. Chem. Chem. Phys. 8, 1057 (2006).
   Fr-Lr: K. Eichkorn, F. Weigend, O. Treutler, R. Ahlrichs; Theor. Chem. Acc. 97, 119 (1997).

================================================================================
                                        WARNINGS
                       Please study these warnings very carefully!
================================================================================


================================================================================
                                       INPUT FILE
================================================================================
NAME = orca.inp
|  1> ! B3LYP def2-SVP d3 EnGrad 
|  2> %pal nprocs 6 end 
|  3> *xyz 0 1 
|  4> N   1.73557943334292 -0.26035031913012 0.36716252620934
|  5> B   2.04875733107334 0.67409407262971 -0.60856673718848
|  6> N   -1.43806244614094 0.38285205378047 0.31853881360167
|  7> B   -2.10813295519671 -0.83408322791574 0.21682760651224
|  8> H   -1.51554057073625 0.99566139172591 1.12355919712381
|  9> H   3.19500750407655 0.82673769342308 -0.9562777473932
| 10> H   1.1570608243274 1.33168949590766 -1.10044244237736
| 11> H   -2.7758848793019 -1.21797008942457 1.14744016812403
| 12> H   2.42881056459904 -0.84665129313481 0.81822360743015
| 13> H   -0.886981531229 0.78343194908755 -0.43554553569293
| 14> H   -1.991865515574 -1.4818443591471 -0.79525868174026
| 15> H   0.78387724075956 -0.42075936780203 0.68550722539099
| 16> *
| 17> 
| 18>                          ****END OF INPUT****
================================================================================

                     *******************************
                     * Energy+Gradient Calculation *
                     *******************************

---------------------------------
CARTESIAN COORDINATES (ANGSTROEM)
---------------------------------
  N      1.735579   -0.260350    0.367163
  B      2.048757    0.674094   -0.608567
  N     -1.438062    0.382852    0.318539
  B     -2.108133   -0.834083    0.216828
  H     -1.515541    0.995661    1.123559
  H      3.195008    0.826738   -0.956278
  H      1.157061    1.331689   -1.100442
  H     -2.775885   -1.217970    1.147440
  H      2.428811   -0.846651    0.818224
  H     -0.886982    0.783432   -0.435546
  H     -1.991866   -1.481844   -0.795259
  H      0.783877   -0.420759    0.685507

----------------------------
CARTESIAN COORDINATES (A.U.)
----------------------------
  NO LB      ZA    FRAG     MASS         X           Y           Z
   0 N     7.0000    0    14.007    3.279770   -0.491991    0.693837
   1 B     5.0000    0    10.810    3.871590    1.273853   -1.150024
   2 N     7.0000    0    14.007   -2.717544    0.723486    0.601951
   3 B     5.0000    0    10.810   -3.983794   -1.576189    0.409745
   4 H     1.0000    0     1.008   -2.863957    1.881527    2.123219
   5 H     1.0000    0     1.008    6.037689    1.562308   -1.807103
   6 H     1.0000    0     1.008    2.186528    2.516528   -2.079535
   7 H     1.0000    0     1.008   -5.245662   -2.301630    2.168348
   8 H     1.0000    0     1.008    4.589787   -1.599939    1.546219
   9 H     1.0000    0     1.008   -1.676152    1.480472   -0.823062
  10 H     1.0000    0     1.008   -3.764080   -2.800280   -1.502821
  11 H     1.0000    0     1.008    1.481313   -0.795120    1.295421

--------------------------------
INTERNAL COORDINATES (ANGSTROEM)
--------------------------------
 N      0   0   0     0.000000000000     0.00000000     0.00000000
 B      1   0   0     1.386836079848     0.00000000     0.00000000
 N      1   2   0     3.238529965456    94.41106892     0.00000000
 B      3   1   2     1.392936156682   107.39708707   130.89859087
 H      3   1   2     1.014690081922   100.53653561   260.93540943
 H      2   1   3     1.207515002266   120.14139050   179.49655297
 H      2   1   3     1.212227746842   119.00471999   359.63122651
 H      4   3   1     1.208015519112   119.16243430   112.68078903
 H      1   2   3     1.013792055825   123.24972087   180.11491926
 H      3   1   2     1.016266516793    63.77041062    11.60000391
 H      4   3   1     1.207241175374   118.92429119   293.49424760
 H      1   2   3     1.016273326306   122.56225761     0.67222721

---------------------------
INTERNAL COORDINATES (A.U.)
---------------------------
 N      0   0   0     0.000000000000     0.00000000     0.00000000
 B      1   0   0     2.620740383554     0.00000000     0.00000000
 N      1   2   0     6.119934711210    94.41106892     0.00000000
 B      3   1   2     2.632267858165   107.39708707   130.89859087
 H      3   1   2     1.917486365638   100.53653561   260.93540943
 H      2   1   3     2.281872656883   120.14139050   179.49655297
 H      2   1   3     2.290778453472   119.00471999   359.63122651
 H      4   3   1     2.282818496648   119.16243430   112.68078903
 H      1   2   3     1.915789342254   123.24972087   180.11491926
 H      3   1   2     1.920465395814    63.77041062    11.60000391
 H      4   3   1     2.281355199051   118.92429119   293.49424760
 H      1   2   3     1.920478263927   122.56225761     0.67222721

---------------------
BASIS SET INFORMATION
---------------------
There are 3 groups of distinct atoms

 Group   1 Type N   : 7s4p1d contracted to 3s2p1d pattern {511/31/1}
 Group   2 Type B   : 7s4p1d contracted to 3s2p1d pattern {511/31/1}
 Group   3 Type H   : 4s1p contracted to 2s1p pattern {31/1}

Atom   0N    basis set group =>   1
Atom   1B    basis set group =>   2
Atom   2N    basis set group =>   1
Atom   3B    basis set group =>   2
Atom   4H    basis set group =>   3
Atom   5H    basis set group =>   3
Atom   6H    basis set group =>   3
Atom   7H    basis set group =>   3
Atom   8H    basis set group =>   3
Atom   9H    basis set group =>   3
Atom  10H    basis set group =>   3
Atom  11H    basis set group =>   3
---------------------------------
AUXILIARY/J BASIS SET INFORMATION
---------------------------------
There are 3 groups of distinct atoms

 Group   1 Type N   : 12s5p4d2f1g contracted to 6s4p3d1f1g pattern {711111/2111/211/2/1}
 Group   2 Type B   : 12s5p4d2f1g contracted to 6s4p3d1f1g pattern {711111/2111/211/2/1}
 Group   3 Type H   : 5s2p1d contracted to 3s1p1d pattern {311/2/1}

Atom   0N    basis set group =>   1
Atom   1B    basis set group =>   2
Atom   2N    basis set group =>   1
Atom   3B    basis set group =>   2
Atom   4H    basis set group =>   3
Atom   5H    basis set group =>   3
Atom   6H    basis set group =>   3
Atom   7H    basis set group =>   3
Atom   8H    basis set group =>   3
Atom   9H    basis set group =>   3
Atom  10H    basis set group =>   3
Atom  11H    basis set group =>   3


           ************************************************************
           *        Program running with 6 parallel MPI-processes     *
           *              working on a common directory               *
           ************************************************************
------------------------------------------------------------------------------
                             ORCA STARTUP CALCULATIONS
                           -- RI-GTO INTEGRALS CHOSEN --
------------------------------------------------------------------------------
------------------------------------------------------------------------------
                   ___                                                        
                  /   \      - P O W E R E D   B Y -                         
                 /     \                                                     
                 |  |  |   _    _      __       _____    __    __             
                 |  |  |  | |  | |    /  \     |  _  \  |  |  /  |          
                  \  \/   | |  | |   /    \    | | | |  |  | /  /          
                 / \  \   | |__| |  /  /\  \   | |_| |  |  |/  /          
                |  |  |   |  __  | /  /__\  \  |    /   |      \           
                |  |  |   | |  | | |   __   |  |    \   |  |\   \          
                \     /   | |  | | |  |  |  |  | |\  \  |  | \   \       
                 \___/    |_|  |_| |__|  |__|  |_| \__\ |__|  \__/        
                                                                              
                      - O R C A' S   B I G   F R I E N D -                    
                                      &                                       
                       - I N T E G R A L  F E E D E R -                       
                                                                              
 v1 FN, 2020, v2 2021, v3 2022-2024                                           
------------------------------------------------------------------------------


----------------------
SHARK INTEGRAL PACKAGE
----------------------

Number of atoms                             ...     12
Number of basis functions                   ...     96
Number of shells                            ...     48
Maximum angular momentum                    ...      2
Integral batch strategy                     ... SHARK/LIBINT Hybrid
RI-J (if used) integral strategy            ... SPLIT-RIJ (Revised 2003 algorithm where possible)
Printlevel                                  ...      1
Contraction scheme used                     ... SEGMENTED contraction
Prescreening option                         ... SCHWARTZ
   Thresh                                   ... 2.500e-11
   Tcut                                     ... 2.500e-12
   Tpresel                                  ... 2.500e-12 
Coulomb Range Separation                    ... NOT USED
Exchange Range Separation                   ... NOT USED
Multipole approximations                    ... NOT USED
Finite Nucleus Model                        ... NOT USED
CABS basis                                  ... NOT available
Auxiliary Coulomb fitting basis             ... AVAILABLE
   # of basis functions in Aux-J            ...    284
   # of shells in Aux-J                     ...    100
   Maximum angular momentum in Aux-J        ...      4
Auxiliary J/K fitting basis                 ... NOT available
Auxiliary Correlation fitting basis         ... NOT available
Auxiliary 'external' fitting basis          ... NOT available

Checking pre-screening integrals            ... done (  0.0 sec) Dimension = 48
   => SHARK Basis and OBASIS are compatible. Storing Pre-screening
Shell pair information
Shell pair cut-off parameter TPreSel        ...   2.5e-12
Total number of shell pairs                 ...      1176
Shell pairs after pre-screening             ...      1130
Total number of primitive shell pairs       ...      3992
Primitive shell pairs kept                  ...      3012
          la=0 lb=0:    395 shell pairs
          la=1 lb=0:    431 shell pairs
          la=1 lb=1:    128 shell pairs
          la=2 lb=0:    106 shell pairs
          la=2 lb=1:     60 shell pairs
          la=2 lb=2:     10 shell pairs

Checking whether 4 symmetric matrices of dimension 96 fit in memory
:Max Core in MB      =   4096.00
 MB in use           =      4.69
 MB left             =   4091.31
 MB needed           =      0.14
 Data fit in memory  = YES
Calculating RI/J V-Matrix + Cholesky decomp.... done (  0.0 sec)
Calculating Nuclear repulsion               ... done (  0.0 sec) ENN=    100.870271159500 Eh

Diagonalization of the overlap matrix:
Smallest eigenvalue                        ... 1.387e-02
Time for diagonalization                   ...    0.002 sec
Threshold for overlap eigenvalues          ... 1.000e-07
Number of eigenvalues below threshold      ... 0
Time for construction of square roots      ...    0.001 sec
Total time needed                          ...    0.003 sec

-------------------
DFT GRID GENERATION
-------------------

General Integration Accuracy     IntAcc      ... 4.388
Radial Grid Type                 RadialGrid  ... OptM3 with GC (2021)
Angular Grid (max. ang.)         AngularGrid ... 4 (Lebedev-302)
Angular grid pruning method      GridPruning ... 4 (adaptive)
Weight generation scheme         WeightScheme... mBecke (2022)
Basis function cutoff            BFCut       ... 1.0000e-11
Integration weight cutoff        WCut        ... 1.0000e-14
Partially contracted basis set               ... off
Rotationally invariant grid construction     ... off
Angular grids for H and He will be reduced by one unit

Total number of grid points                  ...    50375
Total number of batches                      ...      794
Average number of points per batch           ...       63
Average number of grid points per atom       ...     4198

--------------------
COSX GRID GENERATION
--------------------

GRIDX 1
-------
General Integration Accuracy     IntAcc      ... 3.816
Radial Grid Type                 RadialGrid  ... OptM3 with GC (2021)
Angular Grid (max. ang.)         AngularGrid ... 1 (Lebedev-50)
Angular grid pruning method      GridPruning ... 4 (adaptive)
Weight generation scheme         WeightScheme... mBecke (2022)
Basis function cutoff            BFCut       ... 1.0000e-11
Integration weight cutoff        WCut        ... 1.0000e-14
Partially contracted basis set               ... on
Rotationally invariant grid construction     ... off
Angular grids for H and He will be reduced by one unit

Total number of grid points                  ...     6516
Total number of batches                      ...       57
Average number of points per batch           ...      114
Average number of grid points per atom       ...      543
UseSFitting                                  ... on

GRIDX 2
-------
General Integration Accuracy     IntAcc      ... 4.020
Radial Grid Type                 RadialGrid  ... OptM3 with GC (2021)
Angular Grid (max. ang.)         AngularGrid ... 2 (Lebedev-110)
Angular grid pruning method      GridPruning ... 4 (adaptive)
Weight generation scheme         WeightScheme... mBecke (2022)
Basis function cutoff            BFCut       ... 1.0000e-11
Integration weight cutoff        WCut        ... 1.0000e-14
Partially contracted basis set               ... on
Rotationally invariant grid construction     ... off
Angular grids for H and He will be reduced by one unit

Total number of grid points                  ...    13609
Total number of batches                      ...      112
Average number of points per batch           ...      121
Average number of grid points per atom       ...     1134
UseSFitting                                  ... on

GRIDX 3
-------
General Integration Accuracy     IntAcc      ... 4.338
Radial Grid Type                 RadialGrid  ... OptM3 with GC (2021)
Angular Grid (max. ang.)         AngularGrid ... 3 (Lebedev-194)
Angular grid pruning method      GridPruning ... 4 (adaptive)
Weight generation scheme         WeightScheme... mBecke (2022)
Basis function cutoff            BFCut       ... 1.0000e-11
Integration weight cutoff        WCut        ... 1.0000e-14
Partially contracted basis set               ... on
Rotationally invariant grid construction     ... off
Angular grids for H and He will be reduced by one unit

Total number of grid points                  ...    29792
Total number of batches                      ...      239
Average number of points per batch           ...      124
Average number of grid points per atom       ...     2483
UseSFitting                                  ... on
Grids setup in   0.6 sec
Initializing property integral containers    ... done (  0.0 sec)

SHARK setup successfully completed in   0.7 seconds

Maximum memory used throughout the entire STARTUP-calculation: 14.0 MB


           ************************************************************
           *        Program running with 6 parallel MPI-processes     *
           *              working on a common directory               *
           ************************************************************
-------------------------------------------------------------------------------
                                 ORCA GUESS
                   Start orbitals & Density for SCF / CASSCF
-------------------------------------------------------------------------------

------------
SCF SETTINGS
------------
Hamiltonian:
 Density Functional     Method          .... DFT(GTOs)
 Exchange Functional    Exchange        .... B88
   X-Alpha parameter    XAlpha          ....  0.666667
   Becke's b parameter  XBeta           ....  0.004200
 Correlation Functional Correlation     .... LYP
 LDA part of GGA corr.  LDAOpt          .... VWN-5
 Gradients option       PostSCFGGA      .... off
 Hybrid DFT is turned on
   Fraction HF Exchange ScalHFX         ....  0.200000
   Scaling of DF-GGA-X  ScalDFX         ....  0.720000
   Scaling of DF-GGA-C  ScalDFC         ....  0.810000
   Scaling of DF-LDA-C  ScalLDAC        ....  1.000000
   Perturbative correction              ....  0.000000
   NL short-range parameter             ....  4.800000
 RI-approximation to the Coulomb term is turned on
   Number of AuxJ basis functions       .... 284
   RIJ-COSX (HFX calculated with COS-X)).... on


General Settings:
 Integral files         IntName         .... orca
 Hartree-Fock type      HFTyp           .... RHF
 Total Charge           Charge          ....    0
 Multiplicity           Mult            ....    1
 Number of Electrons    NEL             ....   32
 Basis Dimension        Dim             ....   96
 Nuclear Repulsion      ENuc            ....    100.8702711595 Eh

Convergence Acceleration:
 AO-DIIS                CNVDIIS         .... on
   Start iteration      DIISMaxIt       ....    12
   Startup error        DIISStart       ....  0.200000
   # of expansion vecs  DIISMaxEq       ....     5
   Bias factor          DIISBfac        ....   1.050
   Max. coefficient     DIISMaxC        ....  10.000
 MO-DIIS                CNVKDIIS        .... off
 Trust-Rad. Augm. Hess. CNVTRAH         .... auto
   Auto Start mean grad. ratio tolernc. ....  1.125000
   Auto Start start iteration           ....    50
   Auto Start num. interpolation iter.  ....    10
   Max. Number of Micro iterations      ....    24
   Max. Number of Macro iterations      .... Maxiter - #DIIS iter
   Number of Davidson start vectors     ....     2
   Converg. threshold    (grad. norm)   ....   1.000e-05
   Grad. Scal. Fac. for Micro threshold ....   0.100
   Minimum threshold for Micro iter.    ....   1.000e-02
   NR start threshold (gradient norm)   ....   1.000e-04
   Initial trust radius                 ....   0.400
   Minimum AH scaling param. (alpha)    ....   1.000
   Maximum AH scaling param. (alpha)    .... 1000.000
   Quad. conv. algorithm                .... NR
   White noise on init. David. guess    .... on
   Maximum white noise                  ....   0.010
   Pseudo random numbers                .... off
   Inactive MOs                         .... canonical
   Orbital update algorithm             .... Taylor
   Preconditioner                       .... Diag
   Full preconditioner red. dimension   ....   250
 SOSCF                 CNVSOSCF           .... on
   Start iteration     SOSCFMaxIt         ....   150
   Startup grad/error  SOSCFStart         ....  0.003300
   Hessian update      SOSCFHessUp        .... L-BFGS
   Autom. constraints  SOSCFAutoConstrain .... off
 Level Shifting         CNVShift        .... on
   Level shift para.    LevelShift      ....    0.2500
   Turn off err/grad.   ShiftErr        ....    0.0010
 Zerner damping         CNVZerner       .... off
 Static damping         CNVDamp         .... on
   Fraction old density DampFac         ....    0.7000
   Max. Damping (<1)    DampMax         ....    0.9800
   Min. Damping (>=0)   DampMin         ....    0.0000
   Turn off err/grad.   DampErr         ....    0.1000

SCF Procedure:
 Maximum # iterations   MaxIter         ....   125
 SCF integral mode      SCFMode         .... Direct
   Integral package                     .... SHARK and LIBINT hybrid scheme
 Reset frequency        DirectResetFreq ....    20
 Integral Threshold     Thresh          ....  2.500e-11 Eh
 Primitive CutOff       TCut            ....  2.500e-12 Eh

Convergence Tolerance:
 Convergence Check Mode ConvCheckMode   .... Total+1el-Energy
 Convergence forced     ConvForced      .... 0
 Energy Change          TolE            ....  1.000e-08 Eh
 1-El. energy change                    ....  1.000e-05 Eh
 Orbital Gradient       TolG            ....  1.000e-05
 Orbital Rotation angle TolX            ....  1.000e-05
 DIIS Error             TolErr          ....  5.000e-07

------------------------------
INITIAL GUESS: MODEL POTENTIAL
------------------------------
Loading Hartree-Fock densities                     ... done
Calculating cut-offs                               ... done
Initializing the effective Hamiltonian             ... done
Setting up the integral package (SHARK)            ... done
Starting the Coulomb interaction                   ... done (   0.0 sec)
Making the grid                                    ... done (   0.1 sec)
Mapping shells                                     ... done
Starting the XC term evaluation                    ... done (   0.0 sec)
  promolecular density results
     # of electrons  =     31.994540869
     EX              =    -23.094018654
     EC              =     -0.985878930
     EX+EC           =    -24.079897584
Transforming the Hamiltonian                       ... done (   0.0 sec)
Diagonalizing the Hamiltonian                      ... done (   0.0 sec)
Back transforming the eigenvectors                 ... done (   0.0 sec)
Now organizing SCF variables                       ... done
                      ------------------
                      INITIAL GUESS DONE (   0.1 sec)
                      ------------------
             **** ENERGY FILE WAS UPDATED (orca.en.tmp) ****
Finished Guess after   0.2 sec
Maximum memory used throughout the entire GUESS-calculation: 7.0 MB


           ************************************************************
           *        Program running with 6 parallel MPI-processes     *
           *              working on a common directory               *
           ************************************************************

-------------------------------------------------------------------------------------------
                                      ORCA LEAN-SCF
                              memory conserving SCF solver
-------------------------------------------------------------------------------------------

----------------------------------------D-I-I-S--------------------------------------------
Iteration    Energy (Eh)           Delta-E    RMSDP     MaxDP     DIISErr   Damp  Time(sec)
-------------------------------------------------------------------------------------------
               ***  Starting incremental Fock matrix formation  ***
    1    -163.6269446335181783     0.00e+00  1.23e-02  9.40e-02  2.70e-01  0.700   0.3
    2    -163.7339080331900050    -1.07e-01  8.25e-03  5.03e-02  1.22e-01  0.700   0.2
                               ***Turning on AO-DIIS***
    3    -163.7746217234922597    -4.07e-02  3.43e-03  2.46e-02  3.52e-02  0.700   0.2
    4    -163.7994126419717986    -2.48e-02  5.72e-03  3.79e-02  1.86e-02  0.000   0.2
    5    -163.8540539035489587    -5.46e-02  1.11e-03  9.09e-03  7.23e-03  0.000   0.2
                              *** Initializing SOSCF ***
---------------------------------------S-O-S-C-F--------------------------------------
Iteration    Energy (Eh)           Delta-E    RMSDP     MaxDP     MaxGrad    Time(sec)
--------------------------------------------------------------------------------------
    6    -163.8544287636183867    -3.75e-04  2.82e-04  1.27e-03  1.37e-03     0.2
               *** Restarting incremental Fock matrix formation ***
    7    -163.8544357882729514    -7.02e-06  1.74e-04  1.11e-03  2.62e-04     0.3
    8    -163.8544374859916957    -1.70e-06  5.37e-05  4.80e-04  1.31e-04     0.2
    9    -163.8544381256987208    -6.40e-07  1.31e-05  7.19e-05  2.78e-05     0.2
   10    -163.8544381310089193    -5.31e-09  5.20e-06  4.34e-05  2.52e-05     0.3
                 **** Energy Check signals convergence ****

               *****************************************************
               *                     SUCCESS                       *
               *           SCF CONVERGED AFTER  10 CYCLES          *
               *****************************************************

Recomputing exchange energy using gridx3       ... done (    0.496 sec)
Old exchange energy                            :     -4.759146522 Eh
New exchange energy                            :     -4.759176806 Eh
Exchange energy change after final integration :     -0.000030284 Eh
Total energy after final integration           :   -163.854468423 Eh
             **** ENERGY FILE WAS UPDATED (orca.en.tmp) ****

----------------
TOTAL SCF ENERGY
----------------

Total Energy       :       -163.85446842346485 Eh           -4458.70676 eV

Components:
Nuclear Repulsion  :        100.87027115950042 Eh            2744.81962 eV
Electronic Energy  :       -264.72470929881945 Eh           -7203.52556 eV
One Electron Energy:       -419.09396033935190 Eh          -11404.12644 eV
Two Electron Energy:        154.36925104053248 Eh            4200.60088 eV

Virial components:
Potential Energy   :       -325.81864536789965 Eh           -8865.97608 eV
Kinetic Energy     :        161.96417694443477 Eh            4407.26932 eV
Virial Ratio       :          2.01167104673818

DFT components:
N(Alpha)           :       16.000013756716 electrons
N(Beta)            :       16.000013756716 electrons
N(Total)           :       32.000027513431 electrons
E(X)               :      -18.854273337383 Eh       
E(C)               :       -1.186460899004 Eh       
E(XC)              :      -20.040734236387 Eh       

---------------
SCF CONVERGENCE
---------------

  Last Energy change         ...    5.3102e-09  Tolerance :   1.0000e-08
  Last MAX-Density change    ...    4.3426e-05  Tolerance :   1.0000e-07
  Last RMS-Density change    ...    5.2045e-06  Tolerance :   5.0000e-09
  Last DIIS Error            ...    1.3742e-03  Tolerance :   5.0000e-07
  Last Orbital Gradient      ...    2.5246e-05  Tolerance :   1.0000e-05
  Last Orbital Rotation      ...    2.7658e-05  Tolerance :   1.0000e-05


----------------
ORBITAL ENERGIES
----------------

  NO   OCC          E(Eh)            E(eV) 
   0   2.0000     -14.338172      -390.1615 
   1   2.0000     -14.329441      -389.9239 
   2   2.0000      -6.749352      -183.6592 
   3   2.0000      -6.745196      -183.5461 
   4   2.0000      -0.864490       -23.5240 
   5   2.0000      -0.853702       -23.2304 
   6   2.0000      -0.527677       -14.3588 
   7   2.0000      -0.521440       -14.1891 
   8   2.0000      -0.516315       -14.0496 
   9   2.0000      -0.506170       -13.7736 
  10   2.0000      -0.393647       -10.7117 
  11   2.0000      -0.389311       -10.5937 
  12   2.0000      -0.321723        -8.7545 
  13   2.0000      -0.316061        -8.6005 
  14   2.0000      -0.309042        -8.4095 
  15   2.0000      -0.301726        -8.2104 
  16   0.0000       0.003380         0.0920 
  17   0.0000       0.010853         0.2953 
  18   0.0000       0.046948         1.2775 
  19   0.0000       0.074434         2.0255 
  20   0.0000       0.102967         2.8019 
  21   0.0000       0.125203         3.4069 
  22   0.0000       0.159522         4.3408 
  23   0.0000       0.180726         4.9178 
  24   0.0000       0.191926         5.2226 
  25   0.0000       0.202212         5.5025 
  26   0.0000       0.203987         5.5508 
*Only the first 10 virtual orbitals were printed.

                    ********************************
                    * MULLIKEN POPULATION ANALYSIS *
                    ********************************

-----------------------
MULLIKEN ATOMIC CHARGES
-----------------------
   0 N :   -0.059944
   1 B :   -0.078954
   2 N :   -0.080437
   3 B :   -0.056862
   4 H :    0.122544
   5 H :   -0.043551
   6 H :   -0.067052
   7 H :   -0.045922
   8 H :    0.120330
   9 H :    0.131174
  10 H :   -0.042643
  11 H :    0.101316
Sum of atomic charges:   -0.0000000

--------------------------------
MULLIKEN REDUCED ORBITAL CHARGES
--------------------------------
  0 N s       :     3.300201  s :     3.300201
      pz      :     1.357278  p :     3.748024
      px      :     1.048259
      py      :     1.342487
      dz2     :     0.000896  d :     0.011719
      dxz     :     0.003500
      dyz     :     0.001713
      dx2y2   :     0.002404
      dxy     :     0.003207

  1 B s       :     2.960327  s :     2.960327
      pz      :     0.567773  p :     2.049090
      px      :     0.900983
      py      :     0.580334
      dz2     :     0.015637  d :     0.069537
      dxz     :     0.012455
      dyz     :     0.015265
      dx2y2   :     0.013550
      dxy     :     0.012630

  2 N s       :     3.320123  s :     3.320123
      pz      :     1.111001  p :     3.748522
      px      :     1.422386
      py      :     1.215134
      dz2     :     0.001370  d :     0.011792
      dxz     :     0.001922
      dyz     :     0.005694
      dx2y2   :     0.001203
      dxy     :     0.001604

  3 B s       :     2.963231  s :     2.963231
      pz      :     0.847710  p :     2.024748
      px      :     0.500077
      py      :     0.676960
      dz2     :     0.011139  d :     0.068883
      dxz     :     0.006916
      dyz     :     0.016717
      dx2y2   :     0.017488
      dxy     :     0.016623

  4 H s       :     0.831116  s :     0.831116
      pz      :     0.019280  p :     0.046339
      px      :     0.011591
      py      :     0.015468

  5 H s       :     1.031524  s :     1.031524
      pz      :     0.001598  p :     0.012027
      px      :     0.009459
      py      :     0.000970

  6 H s       :     1.055593  s :     1.055593
      pz      :     0.002421  p :     0.011458
      px      :     0.005507
      py      :     0.003529

  7 H s       :     1.033932  s :     1.033932
      pz      :     0.006477  p :     0.011990
      px      :     0.003722
      py      :     0.001790

  8 H s       :     0.833472  s :     0.833472
      pz      :     0.013778  p :     0.046198
      px      :     0.016908
      py      :     0.015512

  9 H s       :     0.822430  s :     0.822430
      pz      :     0.018100  p :     0.046396
      px      :     0.016128
      py      :     0.012168

 10 H s       :     1.030559  s :     1.030559
      pz      :     0.007678  p :     0.012083
      px      :     0.000902
      py      :     0.003503

 11 H s       :     0.851199  s :     0.851199
      pz      :     0.011977  p :     0.047485
      px      :     0.024315
      py      :     0.011193



                     *******************************
                     * LOEWDIN POPULATION ANALYSIS *
                     *******************************

----------------------
LOEWDIN ATOMIC CHARGES
----------------------
   0 N :    0.061861
   1 B :   -0.136549
   2 N :    0.060838
   3 B :   -0.119784
   4 H :    0.083189
   5 H :   -0.044589
   6 H :   -0.055199
   7 H :   -0.045280
   8 H :    0.082923
   9 H :    0.085651
  10 H :   -0.042902
  11 H :    0.069842

-------------------------------
LOEWDIN REDUCED ORBITAL CHARGES
-------------------------------
  0 N s       :     3.029257  s :     3.029257
      pz      :     1.370029  p :     3.876178
      px      :     1.150005
      py      :     1.356145
      dz2     :     0.002584  d :     0.032704
      dxz     :     0.009909
      dyz     :     0.003693
      dx2y2   :     0.007258
      dxy     :     0.009260

  1 B s       :     2.775757  s :     2.775757
      pz      :     0.616223  p :     2.184271
      px      :     0.940945
      py      :     0.627103
      dz2     :     0.039181  d :     0.176521
      dxz     :     0.031951
      dyz     :     0.037189
      dx2y2   :     0.035519
      dxy     :     0.032680

  2 N s       :     3.034813  s :     3.034813
      pz      :     1.188261  p :     3.871762
      px      :     1.391460
      py      :     1.292041
      dz2     :     0.004558  d :     0.032587
      dxz     :     0.005169
      dyz     :     0.015884
      dx2y2   :     0.002948
      dxy     :     0.004027

  3 B s       :     2.783010  s :     2.783010
      pz      :     0.873111  p :     2.161792
      px      :     0.553465
      py      :     0.735217
      dz2     :     0.028713  d :     0.174981
      dxz     :     0.019052
      dyz     :     0.043971
      dx2y2   :     0.041780
      dxy     :     0.041465

  4 H s       :     0.798883  s :     0.798883
      pz      :     0.050097  p :     0.117929
      px      :     0.029446
      py      :     0.038385

  5 H s       :     1.013344  s :     1.013344
      pz      :     0.005334  p :     0.031245
      px      :     0.021617
      py      :     0.004294

  6 H s       :     1.025022  s :     1.025022
      pz      :     0.006759  p :     0.030178
      px      :     0.014572
      py      :     0.008847

  7 H s       :     1.014231  s :     1.014231
      pz      :     0.015757  p :     0.031049
      px      :     0.008790
      py      :     0.006502

  8 H s       :     0.799242  s :     0.799242
      pz      :     0.035563  p :     0.117835
      px      :     0.040630
      py      :     0.041642

  9 H s       :     0.793586  s :     0.793586
      pz      :     0.048235  p :     0.120763
      px      :     0.043849
      py      :     0.028679

 10 H s       :     1.011649  s :     1.011649
      pz      :     0.017925  p :     0.031254
      px      :     0.003628
      py      :     0.009701

 11 H s       :     0.805925  s :     0.805925
      pz      :     0.030951  p :     0.124233
      px      :     0.066305
      py      :     0.026977



                      *****************************
                      * MAYER POPULATION ANALYSIS *
                      *****************************

  NA   - Mulliken gross atomic population
  ZA   - Total nuclear charge
  QA   - Mulliken gross atomic charge
  VA   - Mayer's total valence
  BVA  - Mayer's bonded valence
  FA   - Mayer's free valence

  ATOM       NA         ZA         QA         VA         BVA        FA
  0 N      7.0599     7.0000    -0.0599     3.5174     3.5174    -0.0000
  1 B      5.0790     5.0000    -0.0790     3.6145     3.6145    -0.0000
  2 N      7.0804     7.0000    -0.0804     3.5243     3.5243     0.0000
  3 B      5.0569     5.0000    -0.0569     3.5493     3.5493     0.0000
  4 H      0.8775     1.0000     0.1225     0.9918     0.9918     0.0000
  5 H      1.0436     1.0000    -0.0436     0.9630     0.9630    -0.0000
  6 H      1.0671     1.0000    -0.0671     0.9630     0.9630     0.0000
  7 H      1.0459     1.0000    -0.0459     0.9654     0.9654    -0.0000
  8 H      0.8797     1.0000     0.1203     0.9926     0.9926    -0.0000
  9 H      0.8688     1.0000     0.1312     1.0149     1.0149     0.0000
 10 H      1.0426     1.0000    -0.0426     0.9684     0.9684     0.0000
 11 H      0.8987     1.0000     0.1013     1.0513     1.0513    -0.0000

  Mayer bond orders larger than 0.100000
B(  0-N ,  1-B ) :   1.6313 B(  0-N ,  8-H ) :   0.9576 B(  0-N , 11-H ) :   0.9350 
B(  1-B ,  5-H ) :   0.9671 B(  1-B ,  6-H ) :   0.9483 B(  2-N ,  3-B ) :   1.5568 
B(  2-N ,  4-H ) :   0.9585 B(  2-N ,  9-H ) :   0.9439 B(  3-B ,  7-H ) :   0.9700 
B(  3-B , 10-H ) :   0.9711 

-------
TIMINGS
-------

Total SCF time: 0 days 0 hours 0 min 3 sec 

Total time                  ....       3.431 sec
Sum of individual times     ....       3.149 sec  ( 91.8%)

SCF preparation             ....       0.147 sec  (  4.3%)
Fock matrix formation       ....       2.863 sec  ( 83.4%)
  Startup                   ....       0.003 sec  (  0.1% of F)
  Split-RI-J                ....       0.214 sec  (  7.5% of F)
  Chain of spheres X        ....       2.142 sec  ( 74.8% of F)
  XC integration            ....       0.663 sec  ( 23.2% of F)
    XC Preparation          ....       0.000 sec  (  0.0% of XC)
    Basis function eval.    ....       0.177 sec  ( 26.7% of XC)
    Density eval.           ....       0.080 sec  ( 12.0% of XC)
    XC-Functional eval.     ....       0.045 sec  (  6.8% of XC)
    XC-Potential eval.      ....       0.088 sec  ( 13.3% of XC)
Diagonalization             ....       0.000 sec  (  0.0%)
Density matrix formation    ....       0.018 sec  (  0.5%)
Total Energy calculation    ....       0.010 sec  (  0.3%)
Population analysis         ....       0.016 sec  (  0.5%)
Orbital Transformation      ....       0.013 sec  (  0.4%)
Orbital Orthonormalization  ....       0.000 sec  (  0.0%)
DIIS solution               ....       0.054 sec  (  1.6%)
SOSCF solution              ....       0.029 sec  (  0.8%)
Finished LeanSCF after   3.4 sec

Maximum memory used throughout the entire LEANSCF-calculation: 8.5 MB


-------------------------------------------------------------------------------
                          DFT DISPERSION CORRECTION                            
                                                                               
                              DFTD3 V3.1  Rev 1                                
                          USING Becke-Johnson damping                          
-------------------------------------------------------------------------------
The B3LYP functional is recognized
Active option DFTDOPT                   ...         4   

molecular C6(AA) [au] = 1100.427893 


            DFT-D V3
 parameters
 s6 scaling factor         :     1.0000 
 a1 scaling factor         :     0.3981 
 s8 scaling factor         :     1.9889 
 a2 scaling factor         :     4.4211 
 ad hoc parameters k1-k3   :    16.0000     1.3333    -4.0000 

 Edisp/kcal,au: -6.339408876848  -0.010102490022 
 E6   /kcal   :  -3.174027124 
 E8   /kcal   :  -3.165381753 
 % E8         :  49.931812482 

-------------------------   ----------------
Dispersion correction           -0.010102490
-------------------------   ----------------


-------------------------   --------------------
FINAL SINGLE POINT ENERGY      -163.864570913487
-------------------------   --------------------



           ************************************************************
           *        Program running with 6 parallel MPI-processes     *
           *              working on a common directory               *
           ************************************************************
------------------------------------------------------------------------------
                         ORCA SCF GRADIENT CALCULATION
------------------------------------------------------------------------------

Nuc. rep. gradient        (SHARK) ... done (  0.0 sec)
HCore & Overlap gradient  (SHARK) ... done (  0.0 sec)
Split-RIJ-J gradient      (SHARK) ... done (  0.2 sec)
done (  1.8 sec)
XC gradient                       ... done (  0.4 sec)
Dispersion correction             ... done (  0.1 sec)

-------------------
DISPERSION GRADIENT
-------------------

   1   N   :    0.000426364   -0.000089763    0.000066769
   2   B   :    0.000417292    0.000123010   -0.000161389
   3   N   :   -0.000418887    0.000070970    0.000071260
   4   B   :   -0.000412889   -0.000172909    0.000002536
   5   H   :   -0.000141922    0.000120794    0.000095565
   6   H   :    0.000051878    0.000044832   -0.000051156
   7   H   :    0.000171224    0.000099002   -0.000115338
   8   H   :   -0.000078524   -0.000067252    0.000010153
   9   H   :    0.000093277   -0.000081238    0.000072098
  10   H   :   -0.000172712    0.000111758   -0.000046739
  11   H   :   -0.000119385   -0.000095750   -0.000034839
  12   H   :    0.000184283   -0.000063452    0.000091081

Difference to translation invariance:
           :   -0.0000000000    0.0000000000   -0.0000000000

Difference to rotation invariance:
           :    0.0000000000   -0.0000000000   -0.0000000000

Norm of the Dispersion gradient    ...    0.0010226880
RMS gradient                       ...    0.0001704480
MAX gradient                       ...    0.0004263644

------------------
CARTESIAN GRADIENT
------------------

   1   N   :    0.000067210   -0.000261037   -0.000054906
   2   B   :   -0.000069352    0.000039182   -0.000037188
   3   N   :    0.000104794    0.000008196    0.000135309
   4   B   :    0.000002442    0.000119420    0.000058389
   5   H   :   -0.000123804   -0.000002193    0.000027459
   6   H   :    0.000031291    0.000020440    0.000012472
   7   H   :    0.000037134   -0.000023343   -0.000000844
   8   H   :    0.000000130   -0.000021362   -0.000010331
   9   H   :   -0.000064386    0.000115271   -0.000014602
  10   H   :   -0.000027250   -0.000030055   -0.000144315
  11   H   :    0.000050645   -0.000014225   -0.000041748
  12   H   :   -0.000008854    0.000049705    0.000070305

Difference to translation invariance:
           :    0.0000000000    0.0000000000    0.0000000000

Difference to rotation invariance:
           :   -0.0001280353    0.0000686192   -0.0000926835

Norm of the Cartesian gradient     ...    0.0004502011
RMS gradient                       ...    0.0000750335
MAX gradient                       ...    0.0002610371

-------
TIMINGS
-------

Total SCF gradient time     ....        2.446 sec

Densities                   ....       0.000 sec  (  0.0%)
One electron gradient       ....       0.022 sec  (  0.9%)
RI-J Coulomb gradient       ....       0.157 sec  (  6.4%)
COSX gradient               ....       1.787 sec  ( 73.1%)
XC gradient                 ....       0.423 sec  ( 17.3%)

Maximum memory used throughout the entire SCFGRAD-calculation: 26.9 MB


           ************************************************************
           *        Program running with 6 parallel MPI-processes     *
           *              working on a common directory               *
           ************************************************************

------------------------------------------------------------------------------
                              ORCA PROPERTY CALCULATIONS
------------------------------------------------------------------------------

GBWName                                 ... orca.gbw
Number of atoms                         ...     12
Number of basis functions               ...     96
Max core memory                         ...   4096 MB

Electric properties:
Dipole moment                           ... YES
Quadrupole moment                       ...  NO
Static polarizability (Dipole/Dipole)   ...  NO
Static polarizability (Dipole/Quad.)    ...  NO
Static polarizability (Quad./Quad.)     ...  NO
Static polarizability (Velocity)        ...  NO
Static hyperpolarizability              ...  NO

Atomic electric properties:
Dipole moment                           ...  NO
Quadrupole moment                       ...  NO
Static polarizability                   ...  NO

Choice of electric origin               ... Center of mass
Position of electric origin             ...     0.128490    -0.001426     0.191960

General magnetic properties:
Magnetizability                         ...  NO

EPR properties:
g-Tensor (aka g-matrix)                 ...  NO
Zero-Field splitting spin-orbit         ...  NO
Zero-field splitting spin-spin          ...  NO
Hyperfine couplings                     ...  NO (   0 nuclei)
Quadrupole couplings                    ...  NO (   0 nuclei)
Contact density                         ...  NO (   0 nuclei)

NMR properties:
Chemical shifts                         ...  NO (   0 nuclei)
Spin-rotation constants                 ...  NO (   0 nuclei)
Spin-spin couplings                     ...  NO (   0 nuclei,    0 pairs)

Choice of magnetic origin               ... GIAO
Position of magnetic origin             ...     0.000000     0.000000     0.000000

Properties with geometric perturbations:
SCF Hessian                             ...  NO
IR spectrum                             ...  NO
VCD spectrum                            ...  NO
X-ray spectroscopy properties:
SCF XES/XAS/RIXS spectra                ...  NO

SCF SOC stabilization energy            ...  NO
Diagonal Born-Oppenheimer correction    ...  NO

-------------
DIPOLE MOMENT
-------------

Method             : SCF
Type of density    : Electron Density
Multiplicity       :   1
Irrep              :   0
Energy             :  -163.8544684234648514 Eh
Basis              : AO
                                X                 Y                 Z
Electronic contribution:      0.101030567       0.054444450       0.507168855
Nuclear contribution   :      0.008354602       0.098287224       0.147071053
                        -----------------------------------------
Total Dipole Moment    :      0.109385169       0.152731674       0.654239907
                        -----------------------------------------
Magnitude (a.u.)       :      0.680677557
Magnitude (Debye)      :      1.730144852



--------------------
Rotational spectrum 
--------------------
 
Rotational constants in cm-1:             0.531342             0.079339             0.074347 
Rotational constants in MHz :         15929.221332          2378.523050          2228.865650 

Dipole components along the rotational axes: 
x,y,z [a.u.] :    -0.054165     0.164082    -0.658381 
x,y,z [Debye]:    -0.137676     0.417064    -1.673471 

 

Dipole moment calculation done in   0.0 sec 

Maximum memory used throughout the entire PROP-calculation: 5.0 MB

--------------------------------
SUGGESTED CITATIONS FOR THIS RUN
--------------------------------

Below you find a list of papers that are relevant to this ORCA run
We neither can nor want to force you to cite these papers, but we appreciate if you do
You receive ORCA, which is the product of decades of hard work by many enthusiastic individuals, for free
The only thing we kindly ask in return is that you cite our papers,
We deeply appreciate it, if you show your appreciation for ORCA by not just citing the generic ORCA reference.

Please note that relegating all ORCA citations to the supporting information does *not* help us.
SI sections are not indexed - citations you put there will not count into any citation statistics
But we need these citations in order to attract the funding resources that allow us to do what we are doing

Therefore, if you are a happy ORCA user, please consider citing a few of the papers listed below in the main body of your paper

In addition to the list printed below, the program has created the file orca.bibtex that contains the list in bibtex format
You can import this file easily into all common literature databanks and citation aid programs


List of essential papers. We consider these as the minimum necessary citations

  1. Neese, F.
     Software update: the ORCA program system, version 6.0
     WIRES Comput. Molec. Sci. 2025 15(1), e70019
     doi.org/10.1002/wcms.7019

List of papers to cite with high priority. The work reported in these papers was absolutely
necessary for this run to complete.
Our perspective: the developers of density functionals and basis sets usually get cited in chemistry papers
Good! But without the algorithms to do something with them, the functionals or basis sets would not do anything.
Hence, in our opinion, the algorithm design and method developments papers are equally worthy of getting cited

  1. Neese, F.
     An improvement of the resolution of the identity approximation for the formation of the Coulomb matrix
     J. Comp. Chem. 2003 24(14), 1740-1747
     doi.org/10.1002/jcc.10318
  2. Neese, F.; Wennmohs, F.; Hansen, A.; Becker, U.
     Efficient, approximate and parallel Hartree-Fock and hybrid DFT calculations. A 'chain-of-spheres' algorithm for the Hartree-Fock exchange
     Chem. Phys. 2009 356(1-3), 98-109
     doi.org/10.1016/j.chemphys.2008.10.036
  3. Grimme, S.; Antony, J.; Ehrlich, S.; Krieg, H.
     A consistent and accurate ab initio parametrization of density functional dispersion correction (DFT-D) for the 94 elements H-Pu
     J. Chem. Phys. 2010 132 , 154104
     doi.org/10.1063/1.3382344
  4. Grimme, S.; Ehrlich, S.; Goerigk, L.
     Effect of the damping function in dispersion corrected density functional theory
     J. Comput. Chem. 2011 32(7), 1456-1465
     doi.org/10.1002/jcc.21759
  5. Helmich-Paris, B.; de Souza, B.; Neese, F.; Izsák, R.
     An improved chain of spheres for exchange algorithm
     J. Chem. Phys. 2021 155(10), 104109
     doi.org/10.1063/5.0058766
  6. Neese, F.
     The SHARK Integral Generation and Digestion System
     J. Comp. Chem. 2022 44(3), 381
     doi.org/10.1002/jcc.26942

List of suggested additional citations. These are papers that are important in the 'surrounding' of 
of this run, or papers that preceded the highly important papers. If you like your results we are grateful for a citation.

  1. Izsak, R.; Neese, F.
     An overlap fitted chain of spheres exchange method
     J. Chem. Phys. 2011 135 , 144105
     doi.org/10.1063/1.3646921
  2. Izsak, R.; Hansen, A.; Neese, F.
     The resolution of identity and chain of spheres approximations for the LPNO-CCSD singles Fock term
     Molec. Phys. 2012 110 , 2413-2417
     doi.org/10.1080/00268976.2012.687466
  3. Neese, F.
     The ORCA program system
     WIRES Comput. Molec. Sci. 2012 2(1), 73-78
     doi.org/10.1002/wcms.81
  4. Izsak, R.; Neese, F.; Klopper, W.
     Robust fitting techniques in the chain of spheres approximation to the Fock exchange: The role of the complementary space
     J. Chem. Phys. 2013 139 , 
     doi.org/10.1063/1.4819264
  5. Neese, F.
     Software update: the ORCA program system, version 4.0
     WIRES Comput. Molec. Sci. 2018 8(1), 1-6
     doi.org/10.1002/wcms.1327
  6. Neese, F.; Wennmohs, F.; Becker, U.; Riplinger, C.
     The ORCA quantum chemistry program package
     J. Chem. Phys. 2020 152(22), 224108
     doi.org/10.1063/5.0004608
  7. Neese, F.
     Software update: The ORCA program system—Version 5.0
     WIRES Comput. Molec. Sci. 2022 12(1), e1606
     doi.org/10.1002/wcms.1606

List of optional additional citations

  1. Neese, F.
     Approximate second-order SCF convergence for spin unrestricted wavefunctions
     Chem. Phys. Lett. 2000 325(1-3), 93-98
     doi.org/10.1016/s0009-2614(00)00662-x

Timings for individual modules:

Sum of individual times          ...        9.103 sec (=   0.152 min)
Startup calculation              ...        1.095 sec (=   0.018 min)  12.0 %
SCF iterations                   ...        4.502 sec (=   0.075 min)  49.5 %
Property calculations            ...        0.478 sec (=   0.008 min)   5.3 %
SCF Gradient evaluation          ...        3.028 sec (=   0.050 min)  33.3 %
                             ****ORCA TERMINATED NORMALLY****
TOTAL RUN TIME: 0 days 0 hours 0 minutes 9 seconds 649 msec
