
                                 *****************
                                 * O   R   C   A *
                                 *****************

                                            #,                                       
                                            ###                                      
                                            ####                                     
                                            #####                                    
                                            ######                                   
                                           ########,                                 
                                     ,,################,,,,,                         
                               ,,#################################,,                 
                          ,,##########################################,,             
                       ,#########################################, ''#####,          
                    ,#############################################,,   '####,        
                  ,##################################################,,,,####,       
                ,###########''''           ''''###############################       
              ,#####''   ,,,,##########,,,,          '''####'''          '####       
            ,##' ,,,,###########################,,,                        '##       
           ' ,,###''''                  '''############,,,                           
         ,,##''                                '''############,,,,        ,,,,,,###''
      ,#''                                            '''#######################'''  
     '                                                          ''''####''''         
             ,#######,   #######,   ,#######,      ##                                
            ,#'     '#,  ##    ##  ,#'     '#,    #''#        ,####,    ,#,          
            ##       ##  ##   ,#'  ##            #'  '#       #'       ,# #          
            ##       ##  #######   ##           ,######,      #####,      #          
            '#,     ,#'  ##    ##  '#,     ,#' ,#      #,     #,   #      #          
             '#######'   ##     ##  '#######'  #'      '#     '####' #    #          



                #########################################################
                #                        -***-                          #
                #          Department of theory and spectroscopy        #
                #                                                       #
                #                      Frank Neese                      #
                #                                                       #
                #     Directorship, Architecture, Infrastructure        #
                #                    SHARK, DRIVERS                     #
                #        Core code/Algorithms in most modules           #
                #                                                       #
                #        Max Planck Institute fuer Kohlenforschung      #
                #                Kaiser Wilhelm Platz 1                 #
                #                 D-45470 Muelheim/Ruhr                 #
                #                      Germany                          #
                #                                                       #
                #                  All rights reserved                  #
                #                        -***-                          #
                #########################################################


                         Program Version 6.1.0  -  RELEASE   -
                                (GIT: $679e74b$)
                          ($2025-06-10 18:02:51 +0200$)


 With contributions from (in alphabetic order):
[Max-Planck-Institut fuer Kohlenforschung]                               
  Daniel Aravena         : Magnetic Suceptibility                        
  Michael Atanasov       : Ab Initio Ligand Field Theory (pilot matlab implementation)
  Alexander A. Auer      : GIAO ZORA, VPT2 properties, NMR spectrum      
  Ute Becker             : All parallelization in ORCA, NUMFREQ, NUMCALC 
  Giovanni Bistoni       : ED, misc. LED, open-shell LED, HFLD           
  Dmytro Bykov           : pre 5.0 version of the SCF Hessian            
  Marcos Casanova-Páez   : Triplet and SCS-CIS(D). UHF-(DLPNO)-IP/EA/STEOM-CCSD. UHF-CVS-IP/STEOM-CCSD   
  Vijay G. Chilkuri      : MRCI spin determinant printing, contributions to CSF-ICE 
  Pauline Colinet        : FMM embedding                                 
  Dipayan Datta          : RHF DLPNO-CCSD density                        
  Achintya Kumar Dutta   : EOM-CC, STEOM-CC                              
  Nicolas Foglia         : Exact transition moments, OPA infrastructure, MCD improvements    
  Dmitry Ganyushin       : Spin-Orbit,Spin-Spin,Magnetic field MRCI      
  Miquel Garcia-Rates    : C-PCM and meta-GGA Hessian, CCSD/C-PCM, Gaussian charge scheme 
  Tiago L. C. Gouveia    : GS-ROHF, GS-ROCIS                             
  Yang Guo               : DLPNO-NEVPT2, F12-NEVPT2, CIM, IAO-localization        
  Andreas Hansen         : Spin unrestricted coupled pair/coupled cluster methods 
  Ingolf Harden          : AUTO-CI MPn and infrastructure                
  Benjamin Helmich-Paris : MC-RPA, TRAH-(SCF,CASSCF), AVAS, COSX integrals, SCF dyn. polar., MC-PDFT, srDFT 
  Lee Huntington         : MR-EOM, pCC                                   
  Robert Izsak           : Overlap fitted RIJCOSX, COSX-SCS-MP3, EOM     
  Riya Kayal             : Wick's Theorem for AUTO-CI, AUTO-CI UHF-CCSDT 
  Emily Kempfer          : AUTO-CI RHF CISDT and CCSDT, approximate NEVPT4
  Christian Kollmar      : KDIIS, OOCD, Brueckner-CCSD(T), CCSD density, CASPT2, CASPT2-K, improved NEVPT2 
  Axel Koslowski         : Symmetry handling                             
  Simone Kossmann        : meta-GGA functionals, TD-DFT gradient, OOMP2, (MP2 Hessian; deprecated post 5.0) 
  Lucas Lang             : DCDCAS, Hyperfine gauge corrections, ICE-SOC+SSC
  Marvin Lechner         : AUTO-CI (C++ implementation), FIC-MRCC        
  Spencer Leger          : CASSCF response                               
  Dagmar Lenk            : GEPOL surface, SMD, ORCA-2-JSON               
  Dimitrios Liakos       : Extrapolation schemes; Compound Job, Property file
  Dimitrios Manganas     : Further ROCIS development; embedding schemes. LFT, Crystal Embedding 
  Dimitrios Pantazis     : SARC Basis sets                               
  Anastasios Papadopoulos: AUTO-CI, single reference methods and gradients 
  Taras Petrenko         : pre 6.0 DFT Hessian and TD-DFT gradient,  ECA, NRVS 
  Petra Pikulova         : Analytic Raman intensities                    
  Peter Pinski           : DLPNO-MP2, DLPNO-MP2 Gradient                 
  Shashank Vittal Rao    : ES-AILFT, MagRelax                            
  Christoph Reimann      : Effective Core Potentials                     
  Marius Retegan         : Local ZFS, SOC                                
  Christoph Riplinger    : Optimizer, TS searches, QM/MM, DLPNO-CCSD(T), (RO)-DLPNO pert. Triples 
  Michael Roemelt        : Original ROCIS implementation, recursive CI coupling coefficients
  Masaaki Saitow         : Open-shell DLPNO-CCSD energy and density      
  Barbara Sandhoefer     : DKH picture change effects                    
  Yorick L. A. Schmerwitz: GMF and freeze-and-release deltaSCF, NEB S-IDPP initial path                    
  Kantharuban Sivalingam : CASSCF convergence/infrastructure, NEVPT2, NEVPT3, NEVPT4(SD), FIC-MRCI and CEPA variants
  Bernardo de Souza      : ESD, SOC TD-DFT                               
  Georgi L. Stoychev     : AutoAux, RI-MP2 NMR, DLPNO-MP2 response, X2C  
  Van Anh Tran           : RI-MP2 g-tensors                              
  Willem Van den Heuvel  : Paramagnetic NMR                              
  Zikuan Wang            : NOTCH, Electric field optimization            
  Frank Wennmohs         : Technical directorship and infrastructure     
  Hang Xu                : AUTO-CI-Response properties                   
                                                                         
[FACCTs GmbH]                                                            
  Markus Bursch, Nicolas Foglia, Miquel Garcia-Rates, Ingolf Harden, Hagen Neugebauer, Anastasios Papadopoulos, 
  Christoph Riplinger, Bernardo de Souza, Georgi L. Stoychev                                                    
                                                                 
  APM, various basis sets, CI-OPT, improved COSX, DLPNO-Multilevel,           
  DOCKER, DRACO, updates on ESD, Fragmentator, GOAT, IRC, LR-CPCM, L-BFGS, MBIS, meta-GGA TD-DFT gradient, ML-optimized integration grids, 
  MM, NACMEs, nearIR, NEB, NEB-TS, NL-DFT gradient (VV10), 2- and 3-layer-ONIOM, interface openCOSMO-RS, QMMM,   
  Crystal-QMMM, RESP, rigid body optimization, SF, symmetry and pop. for TD-DFT, various functionals, SOLVATOR                                   
                                                                         
[Other institutions]                                                     
  V. Asgeirsson          : NEB                                           
  Christoph Bannwarth    : sTDA-DFT, sTD-DFT, PBEh-3c, B97-3c, D3        
  Giovanni Bistoni       : ETS/NOCV, ADLD/ADEX, COVALED                  
  Martin Brehm           : Molecular dynamics                            
  Ronald Cardenas        : ETS/NOCV                                      
  Martina Colucci        : COVALED                                       
  Sebastian Ehlert       : rSCAN, r2SCAN, r2SCAN-3c, D4, dhf basis sets  
  Marvin Friede          : D4 for Fr, Ra, Ac-Lr                          
  Lars Goerigk           : TD-DFT with DH, B97 family of functionals     
  Stefan Grimme          : VdW corrections, initial TS optimization, DFT functionals, gCP, sTDA/sTD-DF 
  Waldemar Hujo          : DFT-NL                                        
  H. Jonsson             : NEB                                           
  Holger Kruse           : gCP                                           
  Marcel Mueller         : wB97X-3c, vDZP basis set                      
  Hagen Neugebauer       : wr2SCAN, Native XTB                           
  Gianluca Regni         : ADLD/ADEX                                     
  Tobias Risthaus        : pre 6.0 range-separated hybrid DFT and stability analysis
  Lukas Wittmann         : regularized MP2, r2SCAN double-hybrids, wr2SCAN        
                                                                         
We gratefully acknowledge several colleagues who have allowed us to      
interface, adapt or use parts of their codes:                            
  Ed Valeev, F. Pavosevic, A. Kumar             : LibInt (2-el integral package), F12 methods 
  Garnet Chan, S. Sharma, J. Yang, R. Olivares  : DMRG                   
  Ulf Ekstrom                                   : XCFun DFT Library      
  Mihaly Kallay                                 : mrcc  (arbitrary order and MRCC methods)
  Frank Weinhold                                : gennbo (NPA and NBO analysis)           
  Simon Mueller                                 : openCOSMO-RS                            
  Christopher J. Cramer and Donald G. Truhlar   : smd solvation model                     
  S Lehtola, MJT Oliveira, MAL Marques          : LibXC Library                           
  Liviu Ungur et al                             : ANISO software                          


 Your calculation uses the libint2 library for the computation of 2-el integrals
 For citations please refer to: http://libint.valeyev.net

 Your ORCA version has been built with support for libXC version: 7.0.0
 For citations please refer to: https://libxc.gitlab.io

 This ORCA versions uses:
   CBLAS   interface :  Fast vector & matrix operations
   LAPACKE interface :  Fast linear algebra routines
   SCALAPACK package :  Parallel linear algebra routines
   Shared memory     :  Shared parallel matrices
   BLAS/LAPACK       :  OpenBLAS 0.3.29  USE64BITINT DYNAMIC_ARCH NO_AFFINITY Zen SINGLE_THREADED
        Core in use  :  Zen
   Copyright (c) 2011-2014, The OpenBLAS Project


  ***********************************
  * Starting time: Wed Sep 10 13:35:29 2025
  * Host name:     wyk-Server
  * Process ID:    2291400
  * Working dir.:  /home/wyk/Documents/code/openQDC/MGMR/singlepointcalc/46/prod
  ***********************************

Your calculation utilizes the atom-pairwise dispersion correction
with the Becke-Johnson damping scheme (D3BJ)


Warning: RI is on but no J-basis has been assigned. Assigning Def2/J (nothing to worry about!)
================================================================================

----- Orbital basis set information -----
Your calculation utilizes the basis: def2-SVP
   F. Weigend and R. Ahlrichs, Phys. Chem. Chem. Phys. 7, 3297 (2005).

----- AuxJ basis set information -----
Your calculation utilizes the auxiliary basis: def2/J
   H-Rn: F. Weigend, Phys. Chem. Chem. Phys. 8, 1057 (2006).
   Fr-Lr: K. Eichkorn, F. Weigend, O. Treutler, R. Ahlrichs; Theor. Chem. Acc. 97, 119 (1997).

================================================================================
                                        WARNINGS
                       Please study these warnings very carefully!
================================================================================


================================================================================
                                       INPUT FILE
================================================================================
NAME = orca.inp
|  1> ! B3LYP def2-SVP d3 EnGrad 
|  2> %pal nprocs 6 end 
|  3> *xyz 0 1 
|  4> C   -0.81698694614276 1.79597425743271 -0.43516025847814
|  5> C   0.34129241602093 1.16972672865242 0.29349308105281
|  6> C   0.96864854689842 0.0190284451631 -0.0297954189186
|  7> C   0.61888374182384 -0.90419044706719 -1.15653727138832
|  8> O   -2.0741510320476 -0.98200741593028 0.62901094101672
|  9> H   -1.41330541991868 1.04912908271493 -0.97798111982573
| 10> H   -0.488201966456 2.56693586662226 -1.15622302926934
| 11> H   -1.49510742141465 2.30108369926399 0.2734925619153
| 12> H   -0.12969969418156 -0.46973677146297 -1.82835069840632
| 13> H   0.22058357978036 -1.85257468951071 -0.76176475271809
| 14> H   1.52950174756961 -1.13652203099013 -1.73143660178092
| 15> H   -2.77852124716762 -0.3408999061177 0.79071950488564
| 16> H   0.74916477434915 1.73615435632071 1.14252042804691
| 17> H   -1.27319639955988 -0.50088436780415 0.89240058858074
| 18> O   2.03394044091202 -0.46034355563526 0.6737705579808
| 19> H   2.23710187953438 0.15058974834825 1.39605148730654
| 20> *
| 21> 
| 22>                          ****END OF INPUT****
================================================================================

                     *******************************
                     * Energy+Gradient Calculation *
                     *******************************

---------------------------------
CARTESIAN COORDINATES (ANGSTROEM)
---------------------------------
  C     -0.816987    1.795974   -0.435160
  C      0.341292    1.169727    0.293493
  C      0.968649    0.019028   -0.029795
  C      0.618884   -0.904190   -1.156537
  O     -2.074151   -0.982007    0.629011
  H     -1.413305    1.049129   -0.977981
  H     -0.488202    2.566936   -1.156223
  H     -1.495107    2.301084    0.273493
  H     -0.129700   -0.469737   -1.828351
  H      0.220584   -1.852575   -0.761765
  H      1.529502   -1.136522   -1.731437
  H     -2.778521   -0.340900    0.790720
  H      0.749165    1.736154    1.142520
  H     -1.273196   -0.500884    0.892401
  O      2.033940   -0.460344    0.673771
  H      2.237102    0.150590    1.396051

----------------------------
CARTESIAN COORDINATES (A.U.)
----------------------------
  NO LB      ZA    FRAG     MASS         X           Y           Z
   0 C     6.0000    0    12.011   -1.543882    3.393899   -0.822334
   1 C     6.0000    0    12.011    0.644949    2.210463    0.554622
   2 C     6.0000    0    12.011    1.830480    0.035959   -0.056305
   3 C     6.0000    0    12.011    1.169521   -1.708672   -2.185539
   4 O     8.0000    0    15.999   -3.919577   -1.855725    1.188658
   5 H     1.0000    0     1.008   -2.670760    1.982567   -1.848116
   6 H     1.0000    0     1.008   -0.922568    4.850806   -2.184945
   7 H     1.0000    0     1.008   -2.825344    4.348418    0.516826
   8 H     1.0000    0     1.008   -0.245097   -0.887674   -3.455082
   9 H     1.0000    0     1.008    0.416843   -3.500859   -1.439527
  10 H     1.0000    0     1.008    2.890339   -2.147715   -3.271941
  11 H     1.0000    0     1.008   -5.250644   -0.644207    1.494243
  12 H     1.0000    0     1.008    1.415716    3.280856    2.159051
  13 H     1.0000    0     1.008   -2.405993   -0.946534    1.686393
  14 O     8.0000    0    15.999    3.843590   -0.869923    1.273242
  15 H     1.0000    0     1.008    4.227510    0.284573    2.638155

--------------------------------
INTERNAL COORDINATES (ANGSTROEM)
--------------------------------
 C      0   0   0     0.000000000000     0.00000000     0.00000000
 C      1   0   0     1.504902899634     0.00000000     0.00000000
 C      2   1   0     1.349888035649   126.61788758     0.00000000
 C      3   2   1     1.498070673882   126.65223348   357.87305542
 O      1   2   3     3.229567162680    77.41507102    63.99528489
 H      1   2   3     1.099103236589   111.95913427    26.11325051
 H      1   2   3     1.105627823968   112.15231318   264.20152509
 H      1   2   3     1.103255068904   110.64625488   145.56291826
 H      4   3   2     1.095655254918   112.10639587     9.38583143
 H      4   3   2     1.101780845675   110.20519676   248.67824856
 H      4   3   2     1.101686142857   109.23644093   130.52662184
 H      5   1   2     0.966077584211    76.59369401   138.02126831
 H      2   1   3     1.099112166259   116.43484451   176.51486400
 H      5   1   2     0.970763522793    48.84605718    16.78325463
 O      3   2   1     1.363689634210   122.62551946   178.50284182
 H     15   3   2     0.967576256905   109.09902513   359.68281624

---------------------------
INTERNAL COORDINATES (A.U.)
---------------------------
 C      0   0   0     0.000000000000     0.00000000     0.00000000
 C      1   0   0     2.843854338453     0.00000000     0.00000000
 C      2   1   0     2.550918698834   126.61788758     0.00000000
 C      3   2   1     2.830943302897   126.65223348   357.87305542
 O      1   2   3     6.102997468571    77.41507102    63.99528489
 H      1   2   3     2.077004110059   111.95913427    26.11325051
 H      1   2   3     2.089333793343   112.15231318   264.20152509
 H      1   2   3     2.084849936088   110.64625488   145.56291826
 H      4   3   2     2.070488368987   112.10639587     9.38583143
 H      4   3   2     2.082064057926   110.20519676   248.67824856
 H      4   3   2     2.081885095535   109.23644093   130.52662184
 H      5   1   2     1.825622058279    76.59369401   138.02126831
 H      2   1   3     2.077020984690   116.43484451   176.51486400
 H      5   1   2     1.834477198880    48.84605718    16.78325463
 O      3   2   1     2.576999940324   122.62551946   178.50284182
 H     15   3   2     1.828454139236   109.09902513   359.68281624

---------------------
BASIS SET INFORMATION
---------------------
There are 3 groups of distinct atoms

 Group   1 Type C   : 7s4p1d contracted to 3s2p1d pattern {511/31/1}
 Group   2 Type O   : 7s4p1d contracted to 3s2p1d pattern {511/31/1}
 Group   3 Type H   : 4s1p contracted to 2s1p pattern {31/1}

Atom   0C    basis set group =>   1
Atom   1C    basis set group =>   1
Atom   2C    basis set group =>   1
Atom   3C    basis set group =>   1
Atom   4O    basis set group =>   2
Atom   5H    basis set group =>   3
Atom   6H    basis set group =>   3
Atom   7H    basis set group =>   3
Atom   8H    basis set group =>   3
Atom   9H    basis set group =>   3
Atom  10H    basis set group =>   3
Atom  11H    basis set group =>   3
Atom  12H    basis set group =>   3
Atom  13H    basis set group =>   3
Atom  14O    basis set group =>   2
Atom  15H    basis set group =>   3
---------------------------------
AUXILIARY/J BASIS SET INFORMATION
---------------------------------
There are 3 groups of distinct atoms

 Group   1 Type C   : 12s5p4d2f1g contracted to 6s4p3d1f1g pattern {711111/2111/211/2/1}
 Group   2 Type O   : 12s5p4d2f1g contracted to 6s4p3d1f1g pattern {711111/2111/211/2/1}
 Group   3 Type H   : 5s2p1d contracted to 3s1p1d pattern {311/2/1}

Atom   0C    basis set group =>   1
Atom   1C    basis set group =>   1
Atom   2C    basis set group =>   1
Atom   3C    basis set group =>   1
Atom   4O    basis set group =>   2
Atom   5H    basis set group =>   3
Atom   6H    basis set group =>   3
Atom   7H    basis set group =>   3
Atom   8H    basis set group =>   3
Atom   9H    basis set group =>   3
Atom  10H    basis set group =>   3
Atom  11H    basis set group =>   3
Atom  12H    basis set group =>   3
Atom  13H    basis set group =>   3
Atom  14O    basis set group =>   2
Atom  15H    basis set group =>   3


           ************************************************************
           *        Program running with 6 parallel MPI-processes     *
           *              working on a common directory               *
           ************************************************************
------------------------------------------------------------------------------
                             ORCA STARTUP CALCULATIONS
                           -- RI-GTO INTEGRALS CHOSEN --
------------------------------------------------------------------------------
------------------------------------------------------------------------------
                   ___                                                        
                  /   \      - P O W E R E D   B Y -                         
                 /     \                                                     
                 |  |  |   _    _      __       _____    __    __             
                 |  |  |  | |  | |    /  \     |  _  \  |  |  /  |          
                  \  \/   | |  | |   /    \    | | | |  |  | /  /          
                 / \  \   | |__| |  /  /\  \   | |_| |  |  |/  /          
                |  |  |   |  __  | /  /__\  \  |    /   |      \           
                |  |  |   | |  | | |   __   |  |    \   |  |\   \          
                \     /   | |  | | |  |  |  |  | |\  \  |  | \   \       
                 \___/    |_|  |_| |__|  |__|  |_| \__\ |__|  \__/        
                                                                              
                      - O R C A' S   B I G   F R I E N D -                    
                                      &                                       
                       - I N T E G R A L  F E E D E R -                       
                                                                              
 v1 FN, 2020, v2 2021, v3 2022-2024                                           
------------------------------------------------------------------------------


----------------------
SHARK INTEGRAL PACKAGE
----------------------

Number of atoms                             ...     16
Number of basis functions                   ...    134
Number of shells                            ...     66
Maximum angular momentum                    ...      2
Integral batch strategy                     ... SHARK/LIBINT Hybrid
RI-J (if used) integral strategy            ... SPLIT-RIJ (Revised 2003 algorithm where possible)
Printlevel                                  ...      1
Contraction scheme used                     ... SEGMENTED contraction
Prescreening option                         ... SCHWARTZ
   Thresh                                   ... 2.500e-11
   Tcut                                     ... 2.500e-12
   Tpresel                                  ... 2.500e-12 
Coulomb Range Separation                    ... NOT USED
Exchange Range Separation                   ... NOT USED
Multipole approximations                    ... NOT USED
Finite Nucleus Model                        ... NOT USED
CABS basis                                  ... NOT available
Auxiliary Coulomb fitting basis             ... AVAILABLE
   # of basis functions in Aux-J            ...    404
   # of shells in Aux-J                     ...    140
   Maximum angular momentum in Aux-J        ...      4
Auxiliary J/K fitting basis                 ... NOT available
Auxiliary Correlation fitting basis         ... NOT available
Auxiliary 'external' fitting basis          ... NOT available

Checking pre-screening integrals            ... done (  0.0 sec) Dimension = 66
   => SHARK Basis and OBASIS are compatible. Storing Pre-screening
Shell pair information
Shell pair cut-off parameter TPreSel        ...   2.5e-12
Total number of shell pairs                 ...      2211
Shell pairs after pre-screening             ...      2138
Total number of primitive shell pairs       ...      7611
Primitive shell pairs kept                  ...      5598
          la=0 lb=0:    721 shell pairs
          la=1 lb=0:    806 shell pairs
          la=1 lb=1:    245 shell pairs
          la=2 lb=0:    220 shell pairs
          la=2 lb=1:    126 shell pairs
          la=2 lb=2:     20 shell pairs

Checking whether 4 symmetric matrices of dimension 134 fit in memory
:Max Core in MB      =   4096.00
 MB in use           =      6.02
 MB left             =   4089.98
 MB needed           =      0.28
 Data fit in memory  = YES
Calculating RI/J V-Matrix + Cholesky decomp.... done (  0.0 sec)
Calculating Nuclear repulsion               ... done (  0.0 sec) ENN=    246.610075565056 Eh

Diagonalization of the overlap matrix:
Smallest eigenvalue                        ... 1.492e-03
Time for diagonalization                   ...    0.003 sec
Threshold for overlap eigenvalues          ... 1.000e-07
Number of eigenvalues below threshold      ... 0
Time for construction of square roots      ...    0.001 sec
Total time needed                          ...    0.005 sec

-------------------
DFT GRID GENERATION
-------------------

General Integration Accuracy     IntAcc      ... 4.388
Radial Grid Type                 RadialGrid  ... OptM3 with GC (2021)
Angular Grid (max. ang.)         AngularGrid ... 4 (Lebedev-302)
Angular grid pruning method      GridPruning ... 4 (adaptive)
Weight generation scheme         WeightScheme... mBecke (2022)
Basis function cutoff            BFCut       ... 1.0000e-11
Integration weight cutoff        WCut        ... 1.0000e-14
Partially contracted basis set               ... off
Rotationally invariant grid construction     ... off
Angular grids for H and He will be reduced by one unit

Total number of grid points                  ...    68576
Total number of batches                      ...     1077
Average number of points per batch           ...       63
Average number of grid points per atom       ...     4286

--------------------
COSX GRID GENERATION
--------------------

GRIDX 1
-------
General Integration Accuracy     IntAcc      ... 3.816
Radial Grid Type                 RadialGrid  ... OptM3 with GC (2021)
Angular Grid (max. ang.)         AngularGrid ... 1 (Lebedev-50)
Angular grid pruning method      GridPruning ... 4 (adaptive)
Weight generation scheme         WeightScheme... mBecke (2022)
Basis function cutoff            BFCut       ... 1.0000e-11
Integration weight cutoff        WCut        ... 1.0000e-14
Partially contracted basis set               ... on
Rotationally invariant grid construction     ... off
Angular grids for H and He will be reduced by one unit

Total number of grid points                  ...     8797
Total number of batches                      ...       78
Average number of points per batch           ...      112
Average number of grid points per atom       ...      550
UseSFitting                                  ... on

GRIDX 2
-------
General Integration Accuracy     IntAcc      ... 4.020
Radial Grid Type                 RadialGrid  ... OptM3 with GC (2021)
Angular Grid (max. ang.)         AngularGrid ... 2 (Lebedev-110)
Angular grid pruning method      GridPruning ... 4 (adaptive)
Weight generation scheme         WeightScheme... mBecke (2022)
Basis function cutoff            BFCut       ... 1.0000e-11
Integration weight cutoff        WCut        ... 1.0000e-14
Partially contracted basis set               ... on
Rotationally invariant grid construction     ... off
Angular grids for H and He will be reduced by one unit

Total number of grid points                  ...    18515
Total number of batches                      ...      154
Average number of points per batch           ...      120
Average number of grid points per atom       ...     1157
UseSFitting                                  ... on

GRIDX 3
-------
General Integration Accuracy     IntAcc      ... 4.338
Radial Grid Type                 RadialGrid  ... OptM3 with GC (2021)
Angular Grid (max. ang.)         AngularGrid ... 3 (Lebedev-194)
Angular grid pruning method      GridPruning ... 4 (adaptive)
Weight generation scheme         WeightScheme... mBecke (2022)
Basis function cutoff            BFCut       ... 1.0000e-11
Integration weight cutoff        WCut        ... 1.0000e-14
Partially contracted basis set               ... on
Rotationally invariant grid construction     ... off
Angular grids for H and He will be reduced by one unit

Total number of grid points                  ...    40518
Total number of batches                      ...      327
Average number of points per batch           ...      123
Average number of grid points per atom       ...     2532
UseSFitting                                  ... on
Grids setup in   0.8 sec
Initializing property integral containers    ... done (  0.0 sec)

SHARK setup successfully completed in   1.0 seconds

Maximum memory used throughout the entire STARTUP-calculation: 19.0 MB


           ************************************************************
           *        Program running with 6 parallel MPI-processes     *
           *              working on a common directory               *
           ************************************************************
-------------------------------------------------------------------------------
                                 ORCA GUESS
                   Start orbitals & Density for SCF / CASSCF
-------------------------------------------------------------------------------

------------
SCF SETTINGS
------------
Hamiltonian:
 Density Functional     Method          .... DFT(GTOs)
 Exchange Functional    Exchange        .... B88
   X-Alpha parameter    XAlpha          ....  0.666667
   Becke's b parameter  XBeta           ....  0.004200
 Correlation Functional Correlation     .... LYP
 LDA part of GGA corr.  LDAOpt          .... VWN-5
 Gradients option       PostSCFGGA      .... off
 Hybrid DFT is turned on
   Fraction HF Exchange ScalHFX         ....  0.200000
   Scaling of DF-GGA-X  ScalDFX         ....  0.720000
   Scaling of DF-GGA-C  ScalDFC         ....  0.810000
   Scaling of DF-LDA-C  ScalLDAC        ....  1.000000
   Perturbative correction              ....  0.000000
   NL short-range parameter             ....  4.800000
 RI-approximation to the Coulomb term is turned on
   Number of AuxJ basis functions       .... 404
   RIJ-COSX (HFX calculated with COS-X)).... on


General Settings:
 Integral files         IntName         .... orca
 Hartree-Fock type      HFTyp           .... RHF
 Total Charge           Charge          ....    0
 Multiplicity           Mult            ....    1
 Number of Electrons    NEL             ....   50
 Basis Dimension        Dim             ....  134
 Nuclear Repulsion      ENuc            ....    246.6100755651 Eh

Convergence Acceleration:
 AO-DIIS                CNVDIIS         .... on
   Start iteration      DIISMaxIt       ....    12
   Startup error        DIISStart       ....  0.200000
   # of expansion vecs  DIISMaxEq       ....     5
   Bias factor          DIISBfac        ....   1.050
   Max. coefficient     DIISMaxC        ....  10.000
 MO-DIIS                CNVKDIIS        .... off
 Trust-Rad. Augm. Hess. CNVTRAH         .... auto
   Auto Start mean grad. ratio tolernc. ....  1.125000
   Auto Start start iteration           ....    50
   Auto Start num. interpolation iter.  ....    10
   Max. Number of Micro iterations      ....    24
   Max. Number of Macro iterations      .... Maxiter - #DIIS iter
   Number of Davidson start vectors     ....     2
   Converg. threshold    (grad. norm)   ....   1.000e-05
   Grad. Scal. Fac. for Micro threshold ....   0.100
   Minimum threshold for Micro iter.    ....   1.000e-02
   NR start threshold (gradient norm)   ....   1.000e-04
   Initial trust radius                 ....   0.400
   Minimum AH scaling param. (alpha)    ....   1.000
   Maximum AH scaling param. (alpha)    .... 1000.000
   Quad. conv. algorithm                .... NR
   White noise on init. David. guess    .... on
   Maximum white noise                  ....   0.010
   Pseudo random numbers                .... off
   Inactive MOs                         .... canonical
   Orbital update algorithm             .... Taylor
   Preconditioner                       .... Diag
   Full preconditioner red. dimension   ....   250
 SOSCF                 CNVSOSCF           .... on
   Start iteration     SOSCFMaxIt         ....   150
   Startup grad/error  SOSCFStart         ....  0.003300
   Hessian update      SOSCFHessUp        .... L-BFGS
   Autom. constraints  SOSCFAutoConstrain .... off
 Level Shifting         CNVShift        .... on
   Level shift para.    LevelShift      ....    0.2500
   Turn off err/grad.   ShiftErr        ....    0.0010
 Zerner damping         CNVZerner       .... off
 Static damping         CNVDamp         .... on
   Fraction old density DampFac         ....    0.7000
   Max. Damping (<1)    DampMax         ....    0.9800
   Min. Damping (>=0)   DampMin         ....    0.0000
   Turn off err/grad.   DampErr         ....    0.1000

SCF Procedure:
 Maximum # iterations   MaxIter         ....   125
 SCF integral mode      SCFMode         .... Direct
   Integral package                     .... SHARK and LIBINT hybrid scheme
 Reset frequency        DirectResetFreq ....    20
 Integral Threshold     Thresh          ....  2.500e-11 Eh
 Primitive CutOff       TCut            ....  2.500e-12 Eh

Convergence Tolerance:
 Convergence Check Mode ConvCheckMode   .... Total+1el-Energy
 Convergence forced     ConvForced      .... 0
 Energy Change          TolE            ....  1.000e-08 Eh
 1-El. energy change                    ....  1.000e-05 Eh
 Orbital Gradient       TolG            ....  1.000e-05
 Orbital Rotation angle TolX            ....  1.000e-05
 DIIS Error             TolErr          ....  5.000e-07

------------------------------
INITIAL GUESS: MODEL POTENTIAL
------------------------------
Loading Hartree-Fock densities                     ... done
Calculating cut-offs                               ... done
Initializing the effective Hamiltonian             ... done
Setting up the integral package (SHARK)            ... done
Starting the Coulomb interaction                   ... done (   0.0 sec)
Making the grid                                    ... done (   0.1 sec)
Mapping shells                                     ... done
Starting the XC term evaluation                    ... done (   0.0 sec)
  promolecular density results
     # of electrons  =     50.000481767
     EX              =    -39.905269987
     EC              =     -1.652229784
     EX+EC           =    -41.557499772
Transforming the Hamiltonian                       ... done (   0.0 sec)
Diagonalizing the Hamiltonian                      ... done (   0.0 sec)
Back transforming the eigenvectors                 ... done (   0.0 sec)
Now organizing SCF variables                       ... done
                      ------------------
                      INITIAL GUESS DONE (   0.2 sec)
                      ------------------
             **** ENERGY FILE WAS UPDATED (orca.en.tmp) ****
Finished Guess after   0.3 sec
Maximum memory used throughout the entire GUESS-calculation: 8.6 MB


           ************************************************************
           *        Program running with 6 parallel MPI-processes     *
           *              working on a common directory               *
           ************************************************************

-------------------------------------------------------------------------------------------
                                      ORCA LEAN-SCF
                              memory conserving SCF solver
-------------------------------------------------------------------------------------------

----------------------------------------D-I-I-S--------------------------------------------
Iteration    Energy (Eh)           Delta-E    RMSDP     MaxDP     DIISErr   Damp  Time(sec)
-------------------------------------------------------------------------------------------
               ***  Starting incremental Fock matrix formation  ***
    1    -308.1947263756086386     0.00e+00  1.03e-02  8.89e-02  2.98e-01  0.700   0.8
    2    -308.3203044672798114    -1.26e-01  6.80e-03  4.81e-02  1.24e-01  0.700   0.5
                               ***Turning on AO-DIIS***
    3    -308.3684922932387735    -4.82e-02  2.46e-03  1.54e-02  3.34e-02  0.700   0.4
    4    -308.3970317995023152    -2.85e-02  3.89e-03  1.91e-02  1.71e-02  0.000   0.4
    5    -308.4599456431703857    -6.29e-02  8.25e-04  4.92e-03  6.52e-03  0.000   0.5
                              *** Initializing SOSCF ***
---------------------------------------S-O-S-C-F--------------------------------------
Iteration    Energy (Eh)           Delta-E    RMSDP     MaxDP     MaxGrad    Time(sec)
--------------------------------------------------------------------------------------
    6    -308.4602414309483720    -2.96e-04  2.97e-04  1.77e-03  2.78e-03     0.5
               *** Restarting incremental Fock matrix formation ***
    7    -308.4602341952946745     7.24e-06  1.93e-04  9.91e-04  2.01e-04     0.8
    8    -308.4602341938309564     1.46e-09  7.23e-05  4.97e-04  4.25e-04     0.6
                 **** Energy Check signals convergence ****

               *****************************************************
               *                     SUCCESS                       *
               *           SCF CONVERGED AFTER   8 CYCLES          *
               *****************************************************

Recomputing exchange energy using gridx3       ... done (    1.154 sec)
Old exchange energy                            :     -8.135847165 Eh
New exchange energy                            :     -8.135946913 Eh
Exchange energy change after final integration :     -0.000099748 Eh
Total energy after final integration           :   -308.460336418 Eh
             **** ENERGY FILE WAS UPDATED (orca.en.tmp) ****

----------------
TOTAL SCF ENERGY
----------------

Total Energy       :       -308.46033641767991 Eh           -8393.63248 eV

Components:
Nuclear Repulsion  :        246.61007556505623 Eh            6710.60132 eV
Electronic Energy  :       -555.07031223457852 Eh          -15104.23108 eV
One Electron Energy:       -907.98727865308933 Eh          -24707.58996 eV
Two Electron Energy:        352.91696641851075 Eh            9603.35888 eV

Virial components:
Potential Energy   :       -614.03770626308710 Eh          -16708.81545 eV
Kinetic Energy     :        305.57736984540719 Eh            8315.18297 eV
Virial Ratio       :          2.00943448977826

DFT components:
N(Alpha)           :       25.000019341587 electrons
N(Beta)            :       25.000019341587 electrons
N(Total)           :       50.000038683174 electrons
E(X)               :      -32.309883746783 Eh       
E(C)               :       -1.960552123733 Eh       
E(XC)              :      -34.270435870516 Eh       

---------------
SCF CONVERGENCE
---------------

  Last Energy change         ...   -1.4637e-09  Tolerance :   1.0000e-08
  Last MAX-Density change    ...    4.9696e-04  Tolerance :   1.0000e-07
  Last RMS-Density change    ...    7.2347e-05  Tolerance :   5.0000e-09
  Last DIIS Error            ...    2.7836e-03  Tolerance :   5.0000e-07
  Last Orbital Gradient      ...    4.2534e-04  Tolerance :   1.0000e-05
  Last Orbital Rotation      ...    7.7396e-04  Tolerance :   1.0000e-05


----------------
ORBITAL ENERGIES
----------------

  NO   OCC          E(Eh)            E(eV) 
   0   2.0000     -19.157026      -521.2892 
   1   2.0000     -19.110490      -520.0229 
   2   2.0000     -10.243992      -278.7532 
   3   2.0000     -10.185501      -277.1616 
   4   2.0000     -10.180821      -277.0342 
   5   2.0000     -10.175546      -276.8907 
   6   2.0000      -1.043347       -28.3909 
   7   2.0000      -0.969266       -26.3751 
   8   2.0000      -0.781387       -21.2626 
   9   2.0000      -0.718962       -19.5640 
  10   2.0000      -0.647467       -17.6185 
  11   2.0000      -0.579375       -15.7656 
  12   2.0000      -0.503827       -13.7098 
  13   2.0000      -0.493775       -13.4363 
  14   2.0000      -0.444629       -12.0990 
  15   2.0000      -0.432649       -11.7730 
  16   2.0000      -0.405954       -11.0466 
  17   2.0000      -0.401387       -10.9223 
  18   2.0000      -0.383209       -10.4276 
  19   2.0000      -0.361553        -9.8384 
  20   2.0000      -0.360841        -9.8190 
  21   2.0000      -0.354650        -9.6505 
  22   2.0000      -0.350344        -9.5333 
  23   2.0000      -0.283433        -7.7126 
  24   2.0000      -0.220038        -5.9875 
  25   0.0000       0.029078         0.7913 
  26   0.0000       0.044434         1.2091 
  27   0.0000       0.056496         1.5373 
  28   0.0000       0.095221         2.5911 
  29   0.0000       0.099406         2.7050 
  30   0.0000       0.113379         3.0852 
  31   0.0000       0.134414         3.6576 
  32   0.0000       0.151276         4.1164 
  33   0.0000       0.156754         4.2655 
  34   0.0000       0.171662         4.6712 
  35   0.0000       0.188406         5.1268 
*Only the first 10 virtual orbitals were printed.

                    ********************************
                    * MULLIKEN POPULATION ANALYSIS *
                    ********************************

-----------------------
MULLIKEN ATOMIC CHARGES
-----------------------
   0 C :    0.054236
   1 C :   -0.201546
   2 C :   -0.013724
   3 C :    0.096586
   4 O :   -0.291936
   5 H :    0.015057
   6 H :    0.023695
   7 H :    0.003006
   8 H :    0.015046
   9 H :    0.044748
  10 H :    0.021981
  11 H :    0.148911
  12 H :   -0.027942
  13 H :    0.151039
  14 O :   -0.207797
  15 H :    0.168641
Sum of atomic charges:    0.0000000

--------------------------------
MULLIKEN REDUCED ORBITAL CHARGES
--------------------------------
  0 C s       :     2.947063  s :     2.947063
      pz      :     0.988225  p :     2.968893
      px      :     0.977008
      py      :     1.003660
      dz2     :     0.001945  d :     0.029807
      dxz     :     0.007781
      dyz     :     0.009091
      dx2y2   :     0.003990
      dxy     :     0.007000

  1 C s       :     3.164485  s :     3.164485
      pz      :     0.978441  p :     3.004766
      px      :     1.024320
      py      :     1.002005
      dz2     :     0.004500  d :     0.032295
      dxz     :     0.005781
      dyz     :     0.006495
      dx2y2   :     0.007367
      dxy     :     0.008153

  2 C s       :     3.102266  s :     3.102266
      pz      :     0.977038  p :     2.834488
      px      :     0.847443
      py      :     1.010007
      dz2     :     0.011652  d :     0.076970
      dxz     :     0.016598
      dyz     :     0.015095
      dx2y2   :     0.019633
      dxy     :     0.013992

  3 C s       :     2.916566  s :     2.916566
      pz      :     0.969155  p :     2.959804
      px      :     0.992072
      py      :     0.998577
      dz2     :     0.003148  d :     0.027044
      dxz     :     0.007242
      dyz     :     0.007294
      dx2y2   :     0.004832
      dxy     :     0.004528

  4 O s       :     3.682744  s :     3.682744
      pz      :     1.862967  p :     4.598607
      px      :     1.181048
      py      :     1.554592
      dz2     :     0.001458  d :     0.010585
      dxz     :     0.000955
      dyz     :     0.001620
      dx2y2   :     0.000501
      dxy     :     0.006052

  5 H s       :     0.961220  s :     0.961220
      pz      :     0.006972  p :     0.023722
      px      :     0.007395
      py      :     0.009355

  6 H s       :     0.953250  s :     0.953250
      pz      :     0.008815  p :     0.023054
      px      :     0.005096
      py      :     0.009144

  7 H s       :     0.973876  s :     0.973876
      pz      :     0.008283  p :     0.023118
      px      :     0.007913
      py      :     0.006922

  8 H s       :     0.961505  s :     0.961505
      pz      :     0.008013  p :     0.023449
      px      :     0.009493
      py      :     0.005943

  9 H s       :     0.931486  s :     0.931486
      pz      :     0.005522  p :     0.023766
      px      :     0.006585
      py      :     0.011658

 10 H s       :     0.954499  s :     0.954499
      pz      :     0.007069  p :     0.023520
      px      :     0.011203
      py      :     0.005248

 11 H s       :     0.780299  s :     0.780299
      pz      :     0.019843  p :     0.070791
      px      :     0.027033
      py      :     0.023915

 12 H s       :     1.005027  s :     1.005027
      pz      :     0.010286  p :     0.022915
      px      :     0.005399
      py      :     0.007231

 13 H s       :     0.777207  s :     0.777207
      pz      :     0.019159  p :     0.071754
      px      :     0.031754
      py      :     0.020842

 14 O s       :     3.682776  s :     3.682776
      pz      :     1.395581  p :     4.511080
      px      :     1.522600
      py      :     1.592900
      dz2     :     0.001431  d :     0.013940
      dxz     :     0.001785
      dyz     :     0.004444
      dx2y2   :     0.003162
      dxy     :     0.003119

 15 H s       :     0.763251  s :     0.763251
      pz      :     0.028023  p :     0.068109
      px      :     0.016580
      py      :     0.023506



                     *******************************
                     * LOEWDIN POPULATION ANALYSIS *
                     *******************************

----------------------
LOEWDIN ATOMIC CHARGES
----------------------
   0 C :   -0.060861
   1 C :   -0.153228
   2 C :    0.040991
   3 C :   -0.051505
   4 O :   -0.141856
   5 H :    0.022071
   6 H :    0.029023
   7 H :    0.023847
   8 H :    0.033023
   9 H :    0.043633
  10 H :    0.036717
  11 H :    0.073992
  12 H :    0.014004
  13 H :    0.062590
  14 O :   -0.060632
  15 H :    0.088192

-------------------------------
LOEWDIN REDUCED ORBITAL CHARGES
-------------------------------
  0 C s       :     2.833765  s :     2.833765
      pz      :     1.058191  p :     3.151732
      px      :     1.037540
      py      :     1.056001
      dz2     :     0.004058  d :     0.075364
      dxz     :     0.020234
      dyz     :     0.023635
      dx2y2   :     0.009464
      dxy     :     0.017972

  1 C s       :     2.875048  s :     2.875048
      pz      :     1.061689  p :     3.194311
      px      :     1.068208
      py      :     1.064414
      dz2     :     0.011622  d :     0.083869
      dxz     :     0.013911
      dyz     :     0.018129
      dx2y2   :     0.017727
      dxy     :     0.022480

  2 C s       :     2.860873  s :     2.860873
      pz      :     0.963241  p :     2.927630
      px      :     0.908665
      py      :     1.055724
      dz2     :     0.025196  d :     0.170507
      dxz     :     0.033716
      dyz     :     0.035171
      dx2y2   :     0.042700
      dxy     :     0.033724

  3 C s       :     2.833683  s :     2.833683
      pz      :     1.037273  p :     3.147136
      px      :     1.063589
      py      :     1.046274
      dz2     :     0.007611  d :     0.070686
      dxz     :     0.019252
      dyz     :     0.019834
      dx2y2   :     0.012389
      dxy     :     0.011600

  4 O s       :     3.432453  s :     3.432453
      pz      :     1.827801  p :     4.689963
      px      :     1.255106
      py      :     1.607055
      dz2     :     0.002812  d :     0.019440
      dxz     :     0.001972
      dyz     :     0.001459
      dx2y2   :     0.000562
      dxy     :     0.012636

  5 H s       :     0.911018  s :     0.911018
      pz      :     0.019264  p :     0.066910
      px      :     0.021017
      py      :     0.026629

  6 H s       :     0.907369  s :     0.907369
      pz      :     0.023864  p :     0.063608
      px      :     0.014336
      py      :     0.025408

  7 H s       :     0.912774  s :     0.912774
      pz      :     0.023134  p :     0.063379
      px      :     0.022294
      py      :     0.017951

  8 H s       :     0.901248  s :     0.901248
      pz      :     0.022667  p :     0.065728
      px      :     0.026218
      py      :     0.016843

  9 H s       :     0.890653  s :     0.890653
      pz      :     0.015768  p :     0.065713
      px      :     0.016029
      py      :     0.033916

 10 H s       :     0.898441  s :     0.898441
      pz      :     0.019740  p :     0.064842
      px      :     0.031410
      py      :     0.013692

 11 H s       :     0.749459  s :     0.749459
      pz      :     0.053474  p :     0.176549
      px      :     0.056476
      py      :     0.066600

 12 H s       :     0.916831  s :     0.916831
      pz      :     0.030928  p :     0.069165
      px      :     0.017885
      py      :     0.020352

 13 H s       :     0.752919  s :     0.752919
      pz      :     0.056736  p :     0.184491
      px      :     0.071366
      py      :     0.056390

 14 O s       :     3.421909  s :     3.421909
      pz      :     1.443775  p :     4.611699
      px      :     1.539012
      py      :     1.628912
      dz2     :     0.002883  d :     0.027025
      dxz     :     0.004586
      dyz     :     0.009411
      dx2y2   :     0.005235
      dxy     :     0.004910

 15 H s       :     0.737427  s :     0.737427
      pz      :     0.069461  p :     0.174381
      px      :     0.040089
      py      :     0.064832



                      *****************************
                      * MAYER POPULATION ANALYSIS *
                      *****************************

  NA   - Mulliken gross atomic population
  ZA   - Total nuclear charge
  QA   - Mulliken gross atomic charge
  VA   - Mayer's total valence
  BVA  - Mayer's bonded valence
  FA   - Mayer's free valence

  ATOM       NA         ZA         QA         VA         BVA        FA
  0 C      5.9458     6.0000     0.0542     3.9437     3.9437     0.0000
  1 C      6.2015     6.0000    -0.2015     3.9337     3.9337     0.0000
  2 C      6.0137     6.0000    -0.0137     4.2200     4.2200    -0.0000
  3 C      5.9034     6.0000     0.0966     3.9409     3.9409    -0.0000
  4 O      8.2919     8.0000    -0.2919     2.0686     2.0686     0.0000
  5 H      0.9849     1.0000     0.0151     1.0346     1.0346     0.0000
  6 H      0.9763     1.0000     0.0237     0.9841     0.9841    -0.0000
  7 H      0.9970     1.0000     0.0030     0.9830     0.9830     0.0000
  8 H      0.9850     1.0000     0.0150     0.9967     0.9967     0.0000
  9 H      0.9553     1.0000     0.0447     1.0057     1.0057    -0.0000
 10 H      0.9780     1.0000     0.0220     0.9990     0.9990     0.0000
 11 H      0.8511     1.0000     0.1489     1.0174     1.0174     0.0000
 12 H      1.0279     1.0000    -0.0279     0.9921     0.9921    -0.0000
 13 H      0.8490     1.0000     0.1510     1.0476     1.0476     0.0000
 14 O      8.2078     8.0000    -0.2078     2.2253     2.2253     0.0000
 15 H      0.8314     1.0000     0.1686     1.0196     1.0196     0.0000

  Mayer bond orders larger than 0.100000
B(  0-C ,  1-C ) :   1.0651 B(  0-C ,  5-H ) :   0.9546 B(  0-C ,  6-H ) :   0.9529 
B(  0-C ,  7-H ) :   0.9539 B(  1-C ,  2-C ) :   1.7698 B(  1-C , 12-H ) :   0.9389 
B(  2-C ,  3-C ) :   1.0986 B(  2-C , 14-O ) :   1.1713 B(  3-C ,  8-H ) :   0.9526 
B(  3-C ,  9-H ) :   0.9407 B(  3-C , 10-H ) :   0.9394 B(  4-O , 11-H ) :   1.0018 
B(  4-O , 13-H ) :   0.9798 B( 14-O , 15-H ) :   0.9647 

-------
TIMINGS
-------

Total SCF time: 0 days 0 hours 0 min 6 sec 

Total time                  ....       6.503 sec
Sum of individual times     ....       5.857 sec  ( 90.1%)

SCF preparation             ....       0.185 sec  (  2.8%)
Fock matrix formation       ....       5.495 sec  ( 84.5%)
  Startup                   ....       0.004 sec  (  0.1% of F)
  Split-RI-J                ....       0.458 sec  (  8.3% of F)
  Chain of spheres X        ....       4.448 sec  ( 80.9% of F)
  XC integration            ....       1.091 sec  ( 19.9% of F)
    XC Preparation          ....       0.000 sec  (  0.0% of XC)
    Basis function eval.    ....       0.335 sec  ( 30.7% of XC)
    Density eval.           ....       0.188 sec  ( 17.2% of XC)
    XC-Functional eval.     ....       0.064 sec  (  5.9% of XC)
    XC-Potential eval.      ....       0.220 sec  ( 20.2% of XC)
Diagonalization             ....       0.000 sec  (  0.0%)
Density matrix formation    ....       0.019 sec  (  0.3%)
Total Energy calculation    ....       0.011 sec  (  0.2%)
Population analysis         ....       0.020 sec  (  0.3%)
Orbital Transformation      ....       0.017 sec  (  0.3%)
Orbital Orthonormalization  ....       0.000 sec  (  0.0%)
DIIS solution               ....       0.084 sec  (  1.3%)
SOSCF solution              ....       0.026 sec  (  0.4%)
Finished LeanSCF after   6.5 sec

Maximum memory used throughout the entire LEANSCF-calculation: 12.0 MB


-------------------------------------------------------------------------------
                          DFT DISPERSION CORRECTION                            
                                                                               
                              DFTD3 V3.1  Rev 1                                
                          USING Becke-Johnson damping                          
-------------------------------------------------------------------------------
The B3LYP functional is recognized
Active option DFTDOPT                   ...         4   

molecular C6(AA) [au] = 1804.065692 


            DFT-D V3
 parameters
 s6 scaling factor         :     1.0000 
 a1 scaling factor         :     0.3981 
 s8 scaling factor         :     1.9889 
 a2 scaling factor         :     4.4211 
 ad hoc parameters k1-k3   :    16.0000     1.3333    -4.0000 

 Edisp/kcal,au: -12.212501407736  -0.019461857725 
 E6   /kcal   :  -6.065060210 
 E8   /kcal   :  -6.147441198 
 % E8         :  50.337281385 

-------------------------   ----------------
Dispersion correction           -0.019461858
-------------------------   ----------------


-------------------------   --------------------
FINAL SINGLE POINT ENERGY      -308.479798275404
-------------------------   --------------------



           ************************************************************
           *        Program running with 6 parallel MPI-processes     *
           *              working on a common directory               *
           ************************************************************
------------------------------------------------------------------------------
                         ORCA SCF GRADIENT CALCULATION
------------------------------------------------------------------------------

Nuc. rep. gradient        (SHARK) ... done (  0.0 sec)
HCore & Overlap gradient  (SHARK) ... done (  0.0 sec)
Split-RIJ-J gradient      (SHARK) ... done (  0.2 sec)
done (  4.0 sec)
XC gradient                       ... done (  0.9 sec)
Dispersion correction             ... done (  0.0 sec)

-------------------
DISPERSION GRADIENT
-------------------

   1   C   :   -0.000178813    0.000582563   -0.000100321
   2   C   :    0.000178608    0.000445840    0.000165606
   3   C   :    0.000475795   -0.000128855    0.000037658
   4   C   :    0.000273862   -0.000403413   -0.000365650
   5   O   :   -0.000596633   -0.000367859    0.000286484
   6   H   :   -0.000200671    0.000213484   -0.000141718
   7   H   :   -0.000095655    0.000267019   -0.000104954
   8   H   :   -0.000127819    0.000270471   -0.000002978
   9   H   :    0.000035964   -0.000175594   -0.000309334
  10   H   :    0.000058455   -0.000293232   -0.000152818
  11   H   :    0.000102291   -0.000162718   -0.000192248
  12   H   :   -0.000308644   -0.000153775    0.000134956
  13   H   :    0.000107990    0.000182707    0.000166132
  14   H   :   -0.000307764   -0.000184618    0.000220433
  15   O   :    0.000375556   -0.000087918    0.000188453
  16   H   :    0.000207478   -0.000004100    0.000170298

Difference to translation invariance:
           :   -0.0000000000    0.0000000000    0.0000000000

Difference to rotation invariance:
           :   -0.0000000000   -0.0000000000   -0.0000000000

Norm of the Dispersion gradient    ...    0.0017531678
RMS gradient                       ...    0.0002530480
MAX gradient                       ...    0.0005966330

------------------
CARTESIAN GRADIENT
------------------

   1   C   :    0.000059714    0.000061142   -0.000014423
   2   C   :   -0.000036295   -0.000031882   -0.000171046
   3   C   :   -0.000210729    0.000038427   -0.000055069
   4   C   :   -0.000055752    0.000018454    0.000063535
   5   O   :   -0.000069385    0.000102817    0.000066200
   6   H   :   -0.000074342   -0.000138105   -0.000004790
   7   H   :    0.000120818   -0.000016607    0.000001186
   8   H   :   -0.000032578   -0.000020329    0.000101533
   9   H   :    0.000053781    0.000016984   -0.000081730
  10   H   :    0.000037011    0.000022895   -0.000056250
  11   H   :    0.000028294   -0.000026011    0.000016886
  12   H   :    0.000035870   -0.000080514   -0.000002671
  13   H   :    0.000031650    0.000070973    0.000038088
  14   H   :   -0.000048440   -0.000028700    0.000022879
  15   O   :    0.000106865    0.000109970    0.000079788
  16   H   :    0.000053517   -0.000099513   -0.000004116

Difference to translation invariance:
           :    0.0000000000   -0.0000000001   -0.0000000000

Difference to rotation invariance:
           :   -0.0001032657    0.0001260217    0.0000933645

Norm of the Cartesian gradient     ...    0.0004948300
RMS gradient                       ...    0.0000714226
MAX gradient                       ...    0.0002107293

-------
TIMINGS
-------

Total SCF gradient time     ....        5.155 sec

Densities                   ....       0.000 sec  (  0.0%)
One electron gradient       ....       0.043 sec  (  0.8%)
RI-J Coulomb gradient       ....       0.237 sec  (  4.6%)
COSX gradient               ....       3.979 sec  ( 77.2%)
XC gradient                 ....       0.862 sec  ( 16.7%)

Maximum memory used throughout the entire SCFGRAD-calculation: 28.5 MB


           ************************************************************
           *        Program running with 6 parallel MPI-processes     *
           *              working on a common directory               *
           ************************************************************

------------------------------------------------------------------------------
                              ORCA PROPERTY CALCULATIONS
------------------------------------------------------------------------------

GBWName                                 ... orca.gbw
Number of atoms                         ...     16
Number of basis functions               ...    134
Max core memory                         ...   4096 MB

Electric properties:
Dipole moment                           ... YES
Quadrupole moment                       ...  NO
Static polarizability (Dipole/Dipole)   ...  NO
Static polarizability (Dipole/Quad.)    ...  NO
Static polarizability (Quad./Quad.)     ...  NO
Static polarizability (Velocity)        ...  NO
Static hyperpolarizability              ...  NO

Atomic electric properties:
Dipole moment                           ...  NO
Quadrupole moment                       ...  NO
Static polarizability                   ...  NO

Choice of electric origin               ... Center of mass
Position of electric origin             ...     0.206468     0.114163     0.061151

General magnetic properties:
Magnetizability                         ...  NO

EPR properties:
g-Tensor (aka g-matrix)                 ...  NO
Zero-Field splitting spin-orbit         ...  NO
Zero-field splitting spin-spin          ...  NO
Hyperfine couplings                     ...  NO (   0 nuclei)
Quadrupole couplings                    ...  NO (   0 nuclei)
Contact density                         ...  NO (   0 nuclei)

NMR properties:
Chemical shifts                         ...  NO (   0 nuclei)
Spin-rotation constants                 ...  NO (   0 nuclei)
Spin-spin couplings                     ...  NO (   0 nuclei,    0 pairs)

Choice of magnetic origin               ... GIAO
Position of magnetic origin             ...     0.000000     0.000000     0.000000

Properties with geometric perturbations:
SCF Hessian                             ...  NO
IR spectrum                             ...  NO
VCD spectrum                            ...  NO
X-ray spectroscopy properties:
SCF XES/XAS/RIXS spectra                ...  NO

SCF SOC stabilization energy            ...  NO
Diagonal Born-Oppenheimer correction    ...  NO

-------------
DIPOLE MOMENT
-------------

Method             : SCF
Type of density    : Electron Density
Multiplicity       :   1
Irrep              :   0
Energy             :  -308.4603364176799118 Eh
Basis              : AO
                                X                 Y                 Z
Electronic contribution:      3.782033155      -1.784366605       2.423676388
Nuclear contribution   :     -3.694855548       2.696797290      -2.124644920
                        -----------------------------------------
Total Dipole Moment    :      0.087177607       0.912430685       0.299031467
                        -----------------------------------------
Magnitude (a.u.)       :      0.964131479
Magnitude (Debye)      :      2.450627466



--------------------
Rotational spectrum 
--------------------
 
Rotational constants in cm-1:             0.111498             0.073837             0.058783 
Rotational constants in MHz :          3342.612675          2213.590986          1762.277012 

Dipole components along the rotational axes: 
x,y,z [a.u.] :    -0.005081     0.883328     0.386335 
x,y,z [Debye]:    -0.012915     2.245242     0.981985 

 

Dipole moment calculation done in   0.0 sec 

Maximum memory used throughout the entire PROP-calculation: 6.7 MB

--------------------------------
SUGGESTED CITATIONS FOR THIS RUN
--------------------------------

Below you find a list of papers that are relevant to this ORCA run
We neither can nor want to force you to cite these papers, but we appreciate if you do
You receive ORCA, which is the product of decades of hard work by many enthusiastic individuals, for free
The only thing we kindly ask in return is that you cite our papers,
We deeply appreciate it, if you show your appreciation for ORCA by not just citing the generic ORCA reference.

Please note that relegating all ORCA citations to the supporting information does *not* help us.
SI sections are not indexed - citations you put there will not count into any citation statistics
But we need these citations in order to attract the funding resources that allow us to do what we are doing

Therefore, if you are a happy ORCA user, please consider citing a few of the papers listed below in the main body of your paper

In addition to the list printed below, the program has created the file orca.bibtex that contains the list in bibtex format
You can import this file easily into all common literature databanks and citation aid programs


List of essential papers. We consider these as the minimum necessary citations

  1. Neese, F.
     Software update: the ORCA program system, version 6.0
     WIRES Comput. Molec. Sci. 2025 15(1), e70019
     doi.org/10.1002/wcms.7019

List of papers to cite with high priority. The work reported in these papers was absolutely
necessary for this run to complete.
Our perspective: the developers of density functionals and basis sets usually get cited in chemistry papers
Good! But without the algorithms to do something with them, the functionals or basis sets would not do anything.
Hence, in our opinion, the algorithm design and method developments papers are equally worthy of getting cited

  1. Neese, F.
     An improvement of the resolution of the identity approximation for the formation of the Coulomb matrix
     J. Comp. Chem. 2003 24(14), 1740-1747
     doi.org/10.1002/jcc.10318
  2. Neese, F.; Wennmohs, F.; Hansen, A.; Becker, U.
     Efficient, approximate and parallel Hartree-Fock and hybrid DFT calculations. A 'chain-of-spheres' algorithm for the Hartree-Fock exchange
     Chem. Phys. 2009 356(1-3), 98-109
     doi.org/10.1016/j.chemphys.2008.10.036
  3. Grimme, S.; Antony, J.; Ehrlich, S.; Krieg, H.
     A consistent and accurate ab initio parametrization of density functional dispersion correction (DFT-D) for the 94 elements H-Pu
     J. Chem. Phys. 2010 132 , 154104
     doi.org/10.1063/1.3382344
  4. Grimme, S.; Ehrlich, S.; Goerigk, L.
     Effect of the damping function in dispersion corrected density functional theory
     J. Comput. Chem. 2011 32(7), 1456-1465
     doi.org/10.1002/jcc.21759
  5. Helmich-Paris, B.; de Souza, B.; Neese, F.; Izsák, R.
     An improved chain of spheres for exchange algorithm
     J. Chem. Phys. 2021 155(10), 104109
     doi.org/10.1063/5.0058766
  6. Neese, F.
     The SHARK Integral Generation and Digestion System
     J. Comp. Chem. 2022 44(3), 381
     doi.org/10.1002/jcc.26942

List of suggested additional citations. These are papers that are important in the 'surrounding' of 
of this run, or papers that preceded the highly important papers. If you like your results we are grateful for a citation.

  1. Izsak, R.; Neese, F.
     An overlap fitted chain of spheres exchange method
     J. Chem. Phys. 2011 135 , 144105
     doi.org/10.1063/1.3646921
  2. Izsak, R.; Hansen, A.; Neese, F.
     The resolution of identity and chain of spheres approximations for the LPNO-CCSD singles Fock term
     Molec. Phys. 2012 110 , 2413-2417
     doi.org/10.1080/00268976.2012.687466
  3. Neese, F.
     The ORCA program system
     WIRES Comput. Molec. Sci. 2012 2(1), 73-78
     doi.org/10.1002/wcms.81
  4. Izsak, R.; Neese, F.; Klopper, W.
     Robust fitting techniques in the chain of spheres approximation to the Fock exchange: The role of the complementary space
     J. Chem. Phys. 2013 139 , 
     doi.org/10.1063/1.4819264
  5. Neese, F.
     Software update: the ORCA program system, version 4.0
     WIRES Comput. Molec. Sci. 2018 8(1), 1-6
     doi.org/10.1002/wcms.1327
  6. Neese, F.; Wennmohs, F.; Becker, U.; Riplinger, C.
     The ORCA quantum chemistry program package
     J. Chem. Phys. 2020 152(22), 224108
     doi.org/10.1063/5.0004608
  7. Neese, F.
     Software update: The ORCA program system—Version 5.0
     WIRES Comput. Molec. Sci. 2022 12(1), e1606
     doi.org/10.1002/wcms.1606

List of optional additional citations

  1. Neese, F.
     Approximate second-order SCF convergence for spin unrestricted wavefunctions
     Chem. Phys. Lett. 2000 325(1-3), 93-98
     doi.org/10.1016/s0009-2614(00)00662-x

Timings for individual modules:

Sum of individual times          ...       14.955 sec (=   0.249 min)
Startup calculation              ...        1.333 sec (=   0.022 min)   8.9 %
SCF iterations                   ...        7.526 sec (=   0.125 min)  50.3 %
Property calculations            ...        0.446 sec (=   0.007 min)   3.0 %
SCF Gradient evaluation          ...        5.650 sec (=   0.094 min)  37.8 %
                             ****ORCA TERMINATED NORMALLY****
TOTAL RUN TIME: 0 days 0 hours 0 minutes 15 seconds 551 msec
