
                                 *****************
                                 * O   R   C   A *
                                 *****************

                                            #,                                       
                                            ###                                      
                                            ####                                     
                                            #####                                    
                                            ######                                   
                                           ########,                                 
                                     ,,################,,,,,                         
                               ,,#################################,,                 
                          ,,##########################################,,             
                       ,#########################################, ''#####,          
                    ,#############################################,,   '####,        
                  ,##################################################,,,,####,       
                ,###########''''           ''''###############################       
              ,#####''   ,,,,##########,,,,          '''####'''          '####       
            ,##' ,,,,###########################,,,                        '##       
           ' ,,###''''                  '''############,,,                           
         ,,##''                                '''############,,,,        ,,,,,,###''
      ,#''                                            '''#######################'''  
     '                                                          ''''####''''         
             ,#######,   #######,   ,#######,      ##                                
            ,#'     '#,  ##    ##  ,#'     '#,    #''#        ,####,    ,#,          
            ##       ##  ##   ,#'  ##            #'  '#       #'       ,# #          
            ##       ##  #######   ##           ,######,      #####,      #          
            '#,     ,#'  ##    ##  '#,     ,#' ,#      #,     #,   #      #          
             '#######'   ##     ##  '#######'  #'      '#     '####' #    #          



                #########################################################
                #                        -***-                          #
                #          Department of theory and spectroscopy        #
                #                                                       #
                #                      Frank Neese                      #
                #                                                       #
                #     Directorship, Architecture, Infrastructure        #
                #                    SHARK, DRIVERS                     #
                #        Core code/Algorithms in most modules           #
                #                                                       #
                #        Max Planck Institute fuer Kohlenforschung      #
                #                Kaiser Wilhelm Platz 1                 #
                #                 D-45470 Muelheim/Ruhr                 #
                #                      Germany                          #
                #                                                       #
                #                  All rights reserved                  #
                #                        -***-                          #
                #########################################################


                         Program Version 6.1.0  -  RELEASE   -
                                (GIT: $679e74b$)
                          ($2025-06-10 18:02:51 +0200$)


 With contributions from (in alphabetic order):
[Max-Planck-Institut fuer Kohlenforschung]                               
  Daniel Aravena         : Magnetic Suceptibility                        
  Michael Atanasov       : Ab Initio Ligand Field Theory (pilot matlab implementation)
  Alexander A. Auer      : GIAO ZORA, VPT2 properties, NMR spectrum      
  Ute Becker             : All parallelization in ORCA, NUMFREQ, NUMCALC 
  Giovanni Bistoni       : ED, misc. LED, open-shell LED, HFLD           
  Dmytro Bykov           : pre 5.0 version of the SCF Hessian            
  Marcos Casanova-Páez   : Triplet and SCS-CIS(D). UHF-(DLPNO)-IP/EA/STEOM-CCSD. UHF-CVS-IP/STEOM-CCSD   
  Vijay G. Chilkuri      : MRCI spin determinant printing, contributions to CSF-ICE 
  Pauline Colinet        : FMM embedding                                 
  Dipayan Datta          : RHF DLPNO-CCSD density                        
  Achintya Kumar Dutta   : EOM-CC, STEOM-CC                              
  Nicolas Foglia         : Exact transition moments, OPA infrastructure, MCD improvements    
  Dmitry Ganyushin       : Spin-Orbit,Spin-Spin,Magnetic field MRCI      
  Miquel Garcia-Rates    : C-PCM and meta-GGA Hessian, CCSD/C-PCM, Gaussian charge scheme 
  Tiago L. C. Gouveia    : GS-ROHF, GS-ROCIS                             
  Yang Guo               : DLPNO-NEVPT2, F12-NEVPT2, CIM, IAO-localization        
  Andreas Hansen         : Spin unrestricted coupled pair/coupled cluster methods 
  Ingolf Harden          : AUTO-CI MPn and infrastructure                
  Benjamin Helmich-Paris : MC-RPA, TRAH-(SCF,CASSCF), AVAS, COSX integrals, SCF dyn. polar., MC-PDFT, srDFT 
  Lee Huntington         : MR-EOM, pCC                                   
  Robert Izsak           : Overlap fitted RIJCOSX, COSX-SCS-MP3, EOM     
  Riya Kayal             : Wick's Theorem for AUTO-CI, AUTO-CI UHF-CCSDT 
  Emily Kempfer          : AUTO-CI RHF CISDT and CCSDT, approximate NEVPT4
  Christian Kollmar      : KDIIS, OOCD, Brueckner-CCSD(T), CCSD density, CASPT2, CASPT2-K, improved NEVPT2 
  Axel Koslowski         : Symmetry handling                             
  Simone Kossmann        : meta-GGA functionals, TD-DFT gradient, OOMP2, (MP2 Hessian; deprecated post 5.0) 
  Lucas Lang             : DCDCAS, Hyperfine gauge corrections, ICE-SOC+SSC
  Marvin Lechner         : AUTO-CI (C++ implementation), FIC-MRCC        
  Spencer Leger          : CASSCF response                               
  Dagmar Lenk            : GEPOL surface, SMD, ORCA-2-JSON               
  Dimitrios Liakos       : Extrapolation schemes; Compound Job, Property file
  Dimitrios Manganas     : Further ROCIS development; embedding schemes. LFT, Crystal Embedding 
  Dimitrios Pantazis     : SARC Basis sets                               
  Anastasios Papadopoulos: AUTO-CI, single reference methods and gradients 
  Taras Petrenko         : pre 6.0 DFT Hessian and TD-DFT gradient,  ECA, NRVS 
  Petra Pikulova         : Analytic Raman intensities                    
  Peter Pinski           : DLPNO-MP2, DLPNO-MP2 Gradient                 
  Shashank Vittal Rao    : ES-AILFT, MagRelax                            
  Christoph Reimann      : Effective Core Potentials                     
  Marius Retegan         : Local ZFS, SOC                                
  Christoph Riplinger    : Optimizer, TS searches, QM/MM, DLPNO-CCSD(T), (RO)-DLPNO pert. Triples 
  Michael Roemelt        : Original ROCIS implementation, recursive CI coupling coefficients
  Masaaki Saitow         : Open-shell DLPNO-CCSD energy and density      
  Barbara Sandhoefer     : DKH picture change effects                    
  Yorick L. A. Schmerwitz: GMF and freeze-and-release deltaSCF, NEB S-IDPP initial path                    
  Kantharuban Sivalingam : CASSCF convergence/infrastructure, NEVPT2, NEVPT3, NEVPT4(SD), FIC-MRCI and CEPA variants
  Bernardo de Souza      : ESD, SOC TD-DFT                               
  Georgi L. Stoychev     : AutoAux, RI-MP2 NMR, DLPNO-MP2 response, X2C  
  Van Anh Tran           : RI-MP2 g-tensors                              
  Willem Van den Heuvel  : Paramagnetic NMR                              
  Zikuan Wang            : NOTCH, Electric field optimization            
  Frank Wennmohs         : Technical directorship and infrastructure     
  Hang Xu                : AUTO-CI-Response properties                   
                                                                         
[FACCTs GmbH]                                                            
  Markus Bursch, Nicolas Foglia, Miquel Garcia-Rates, Ingolf Harden, Hagen Neugebauer, Anastasios Papadopoulos, 
  Christoph Riplinger, Bernardo de Souza, Georgi L. Stoychev                                                    
                                                                 
  APM, various basis sets, CI-OPT, improved COSX, DLPNO-Multilevel,           
  DOCKER, DRACO, updates on ESD, Fragmentator, GOAT, IRC, LR-CPCM, L-BFGS, MBIS, meta-GGA TD-DFT gradient, ML-optimized integration grids, 
  MM, NACMEs, nearIR, NEB, NEB-TS, NL-DFT gradient (VV10), 2- and 3-layer-ONIOM, interface openCOSMO-RS, QMMM,   
  Crystal-QMMM, RESP, rigid body optimization, SF, symmetry and pop. for TD-DFT, various functionals, SOLVATOR                                   
                                                                         
[Other institutions]                                                     
  V. Asgeirsson          : NEB                                           
  Christoph Bannwarth    : sTDA-DFT, sTD-DFT, PBEh-3c, B97-3c, D3        
  Giovanni Bistoni       : ETS/NOCV, ADLD/ADEX, COVALED                  
  Martin Brehm           : Molecular dynamics                            
  Ronald Cardenas        : ETS/NOCV                                      
  Martina Colucci        : COVALED                                       
  Sebastian Ehlert       : rSCAN, r2SCAN, r2SCAN-3c, D4, dhf basis sets  
  Marvin Friede          : D4 for Fr, Ra, Ac-Lr                          
  Lars Goerigk           : TD-DFT with DH, B97 family of functionals     
  Stefan Grimme          : VdW corrections, initial TS optimization, DFT functionals, gCP, sTDA/sTD-DF 
  Waldemar Hujo          : DFT-NL                                        
  H. Jonsson             : NEB                                           
  Holger Kruse           : gCP                                           
  Marcel Mueller         : wB97X-3c, vDZP basis set                      
  Hagen Neugebauer       : wr2SCAN, Native XTB                           
  Gianluca Regni         : ADLD/ADEX                                     
  Tobias Risthaus        : pre 6.0 range-separated hybrid DFT and stability analysis
  Lukas Wittmann         : regularized MP2, r2SCAN double-hybrids, wr2SCAN        
                                                                         
We gratefully acknowledge several colleagues who have allowed us to      
interface, adapt or use parts of their codes:                            
  Ed Valeev, F. Pavosevic, A. Kumar             : LibInt (2-el integral package), F12 methods 
  Garnet Chan, S. Sharma, J. Yang, R. Olivares  : DMRG                   
  Ulf Ekstrom                                   : XCFun DFT Library      
  Mihaly Kallay                                 : mrcc  (arbitrary order and MRCC methods)
  Frank Weinhold                                : gennbo (NPA and NBO analysis)           
  Simon Mueller                                 : openCOSMO-RS                            
  Christopher J. Cramer and Donald G. Truhlar   : smd solvation model                     
  S Lehtola, MJT Oliveira, MAL Marques          : LibXC Library                           
  Liviu Ungur et al                             : ANISO software                          


 Your calculation uses the libint2 library for the computation of 2-el integrals
 For citations please refer to: http://libint.valeyev.net

 Your ORCA version has been built with support for libXC version: 7.0.0
 For citations please refer to: https://libxc.gitlab.io

 This ORCA versions uses:
   CBLAS   interface :  Fast vector & matrix operations
   LAPACKE interface :  Fast linear algebra routines
   SCALAPACK package :  Parallel linear algebra routines
   Shared memory     :  Shared parallel matrices
   BLAS/LAPACK       :  OpenBLAS 0.3.29  USE64BITINT DYNAMIC_ARCH NO_AFFINITY Zen SINGLE_THREADED
        Core in use  :  Zen
   Copyright (c) 2011-2014, The OpenBLAS Project


  ***********************************
  * Starting time: Wed Sep 10 13:35:36 2025
  * Host name:     wyk-Server
  * Process ID:    2292740
  * Working dir.:  /home/wyk/Documents/code/openQDC/MGMR/singlepointcalc/58/sp
  ***********************************

Your calculation utilizes the atom-pairwise dispersion correction
with the Becke-Johnson damping scheme (D3BJ)


Warning: RI is on but no J-basis has been assigned. Assigning Def2/J (nothing to worry about!)
================================================================================

----- Orbital basis set information -----
Your calculation utilizes the basis: def2-SVP
   F. Weigend and R. Ahlrichs, Phys. Chem. Chem. Phys. 7, 3297 (2005).

----- AuxJ basis set information -----
Your calculation utilizes the auxiliary basis: def2/J
   H-Rn: F. Weigend, Phys. Chem. Chem. Phys. 8, 1057 (2006).
   Fr-Lr: K. Eichkorn, F. Weigend, O. Treutler, R. Ahlrichs; Theor. Chem. Acc. 97, 119 (1997).

================================================================================
                                        WARNINGS
                       Please study these warnings very carefully!
================================================================================


================================================================================
                                       INPUT FILE
================================================================================
NAME = orca.inp
|  1> ! B3LYP def2-SVP d3 EnGrad 
|  2> %pal nprocs 6 end 
|  3> *xyz 0 1 
|  4> C   -1.7157896832726 -0.09307407566569 -0.46619893643704
|  5> C   -0.47283717636406 0.05123546613107 0.35211818637218
|  6> N   0.69569462370299 0.20861622272468 -0.19462838484551
|  7> C   1.97142602054307 0.12501012957959 0.37553539197864
|  8> H   -0.54235585990435 0.00204183696051 1.45185550590348
|  9> H   -2.49561697623331 0.62355902285795 -0.15055433031435
| 10> H   -1.4968323364772 0.08239793060188 -1.53080496189179
| 11> H   -2.16301351508946 -1.10136977289793 -0.37082605164277
| 12> H   1.37725488356139 -0.5799581269633 -0.72719949558509
| 13> H   2.74923777637879 0.62351698628457 -0.20776562552543
| 14> H   2.09283224315475 0.05802438038665 1.46846870198769
| 15> *
| 16> 
| 17>                          ****END OF INPUT****
================================================================================

                     *******************************
                     * Energy+Gradient Calculation *
                     *******************************

---------------------------------
CARTESIAN COORDINATES (ANGSTROEM)
---------------------------------
  C     -1.715790   -0.093074   -0.466199
  C     -0.472837    0.051235    0.352118
  N      0.695695    0.208616   -0.194628
  C      1.971426    0.125010    0.375535
  H     -0.542356    0.002042    1.451856
  H     -2.495617    0.623559   -0.150554
  H     -1.496832    0.082398   -1.530805
  H     -2.163014   -1.101370   -0.370826
  H      1.377255   -0.579958   -0.727199
  H      2.749238    0.623517   -0.207766
  H      2.092832    0.058024    1.468469

----------------------------
CARTESIAN COORDINATES (A.U.)
----------------------------
  NO LB      ZA    FRAG     MASS         X           Y           Z
   0 C     6.0000    0    12.011   -3.242373   -0.175885   -0.880988
   1 C     6.0000    0    12.011   -0.893533    0.096821    0.665407
   2 N     7.0000    0    14.007    1.314672    0.394228   -0.367794
   3 C     6.0000    0    12.011    3.725455    0.236235    0.709659
   4 H     1.0000    0     1.008   -1.024904    0.003859    2.743609
   5 H     1.0000    0     1.008   -4.716033    1.178356   -0.284506
   6 H     1.0000    0     1.008   -2.828603    0.155710   -2.892802
   7 H     1.0000    0     1.008   -4.087503   -2.081287   -0.700760
   8 H     1.0000    0     1.008    2.602635   -1.095962   -1.374208
   9 H     1.0000    0     1.008    5.195306    1.178276   -0.392620
  10 H     1.0000    0     1.008    3.954880    0.109650    2.775004

--------------------------------
INTERNAL COORDINATES (ANGSTROEM)
--------------------------------
 C      0   0   0     0.000000000000     0.00000000     0.00000000
 C      1   0   0     1.495125109068     0.00000000     0.00000000
 N      2   1   0     1.299679608000   121.93043900     0.00000000
 C      3   2   1     1.399845458648   129.85148965   192.59052251
 H      2   1   3     1.103029932723   119.27421122   181.31284975
 H      1   2   3     1.105135793521   111.57448199   232.39631566
 H      1   2   3     1.100962639754   110.39751488   352.81562524
 H      1   2   3     1.107142879648   112.12125620   113.26466169
 H      3   2   1     1.170472503222   129.29883181   284.54682011
 H      4   3   2     1.092584225916   113.83364273   199.74135812
 H      4   3   2     1.101694050820   120.53910532   350.02744901

---------------------------
INTERNAL COORDINATES (A.U.)
---------------------------
 C      0   0   0     0.000000000000     0.00000000     0.00000000
 C      1   0   0     2.825376992088     0.00000000     0.00000000
 N      2   1   0     2.456038520963   121.93043900     0.00000000
 C      3   2   1     2.645324546658   129.85148965   192.59052251
 H      2   1   3     2.084424490363   119.27421122   181.31284975
 H      1   2   3     2.088403990548   111.57448199   232.39631566
 H      1   2   3     2.080517872814   110.39751488   352.81562524
 H      1   2   3     2.092196833656   112.12125620   113.26466169
 H      3   2   1     2.211872478375   129.29883181   284.54682011
 H      4   3   2     2.064684965223   113.83364273   199.74135812
 H      4   3   2     2.081900039419   120.53910532   350.02744901

---------------------
BASIS SET INFORMATION
---------------------
There are 3 groups of distinct atoms

 Group   1 Type C   : 7s4p1d contracted to 3s2p1d pattern {511/31/1}
 Group   2 Type N   : 7s4p1d contracted to 3s2p1d pattern {511/31/1}
 Group   3 Type H   : 4s1p contracted to 2s1p pattern {31/1}

Atom   0C    basis set group =>   1
Atom   1C    basis set group =>   1
Atom   2N    basis set group =>   2
Atom   3C    basis set group =>   1
Atom   4H    basis set group =>   3
Atom   5H    basis set group =>   3
Atom   6H    basis set group =>   3
Atom   7H    basis set group =>   3
Atom   8H    basis set group =>   3
Atom   9H    basis set group =>   3
Atom  10H    basis set group =>   3
---------------------------------
AUXILIARY/J BASIS SET INFORMATION
---------------------------------
There are 3 groups of distinct atoms

 Group   1 Type C   : 12s5p4d2f1g contracted to 6s4p3d1f1g pattern {711111/2111/211/2/1}
 Group   2 Type N   : 12s5p4d2f1g contracted to 6s4p3d1f1g pattern {711111/2111/211/2/1}
 Group   3 Type H   : 5s2p1d contracted to 3s1p1d pattern {311/2/1}

Atom   0C    basis set group =>   1
Atom   1C    basis set group =>   1
Atom   2N    basis set group =>   2
Atom   3C    basis set group =>   1
Atom   4H    basis set group =>   3
Atom   5H    basis set group =>   3
Atom   6H    basis set group =>   3
Atom   7H    basis set group =>   3
Atom   8H    basis set group =>   3
Atom   9H    basis set group =>   3
Atom  10H    basis set group =>   3


           ************************************************************
           *        Program running with 6 parallel MPI-processes     *
           *              working on a common directory               *
           ************************************************************
------------------------------------------------------------------------------
                             ORCA STARTUP CALCULATIONS
                           -- RI-GTO INTEGRALS CHOSEN --
------------------------------------------------------------------------------
------------------------------------------------------------------------------
                   ___                                                        
                  /   \      - P O W E R E D   B Y -                         
                 /     \                                                     
                 |  |  |   _    _      __       _____    __    __             
                 |  |  |  | |  | |    /  \     |  _  \  |  |  /  |          
                  \  \/   | |  | |   /    \    | | | |  |  | /  /          
                 / \  \   | |__| |  /  /\  \   | |_| |  |  |/  /          
                |  |  |   |  __  | /  /__\  \  |    /   |      \           
                |  |  |   | |  | | |   __   |  |    \   |  |\   \          
                \     /   | |  | | |  |  |  |  | |\  \  |  | \   \       
                 \___/    |_|  |_| |__|  |__|  |_| \__\ |__|  \__/        
                                                                              
                      - O R C A' S   B I G   F R I E N D -                    
                                      &                                       
                       - I N T E G R A L  F E E D E R -                       
                                                                              
 v1 FN, 2020, v2 2021, v3 2022-2024                                           
------------------------------------------------------------------------------


----------------------
SHARK INTEGRAL PACKAGE
----------------------

Number of atoms                             ...     11
Number of basis functions                   ...     91
Number of shells                            ...     45
Maximum angular momentum                    ...      2
Integral batch strategy                     ... SHARK/LIBINT Hybrid
RI-J (if used) integral strategy            ... SPLIT-RIJ (Revised 2003 algorithm where possible)
Printlevel                                  ...      1
Contraction scheme used                     ... SEGMENTED contraction
Prescreening option                         ... SCHWARTZ
   Thresh                                   ... 2.500e-11
   Tcut                                     ... 2.500e-12
   Tpresel                                  ... 2.500e-12 
Coulomb Range Separation                    ... NOT USED
Exchange Range Separation                   ... NOT USED
Multipole approximations                    ... NOT USED
Finite Nucleus Model                        ... NOT USED
CABS basis                                  ... NOT available
Auxiliary Coulomb fitting basis             ... AVAILABLE
   # of basis functions in Aux-J            ...    273
   # of shells in Aux-J                     ...     95
   Maximum angular momentum in Aux-J        ...      4
Auxiliary J/K fitting basis                 ... NOT available
Auxiliary Correlation fitting basis         ... NOT available
Auxiliary 'external' fitting basis          ... NOT available

Checking pre-screening integrals            ... done (  0.0 sec) Dimension = 45
   => SHARK Basis and OBASIS are compatible. Storing Pre-screening
Shell pair information
Shell pair cut-off parameter TPreSel        ...   2.5e-12
Total number of shell pairs                 ...      1035
Shell pairs after pre-screening             ...      1016
Total number of primitive shell pairs       ...      3559
Primitive shell pairs kept                  ...      2832
          la=0 lb=0:    344 shell pairs
          la=1 lb=0:    385 shell pairs
          la=1 lb=1:    115 shell pairs
          la=2 lb=0:    102 shell pairs
          la=2 lb=1:     60 shell pairs
          la=2 lb=2:     10 shell pairs

Checking whether 4 symmetric matrices of dimension 91 fit in memory
:Max Core in MB      =   4096.00
 MB in use           =      4.56
 MB left             =   4091.44
 MB needed           =      0.13
 Data fit in memory  = YES
Calculating RI/J V-Matrix + Cholesky decomp.... done (  0.0 sec)
Calculating Nuclear repulsion               ... done (  0.0 sec) ENN=    118.363223786476 Eh

Diagonalization of the overlap matrix:
Smallest eigenvalue                        ... 3.785e-03
Time for diagonalization                   ...    0.001 sec
Threshold for overlap eigenvalues          ... 1.000e-07
Number of eigenvalues below threshold      ... 0
Time for construction of square roots      ...    0.001 sec
Total time needed                          ...    0.002 sec

-------------------
DFT GRID GENERATION
-------------------

General Integration Accuracy     IntAcc      ... 4.388
Radial Grid Type                 RadialGrid  ... OptM3 with GC (2021)
Angular Grid (max. ang.)         AngularGrid ... 4 (Lebedev-302)
Angular grid pruning method      GridPruning ... 4 (adaptive)
Weight generation scheme         WeightScheme... mBecke (2022)
Basis function cutoff            BFCut       ... 1.0000e-11
Integration weight cutoff        WCut        ... 1.0000e-14
Partially contracted basis set               ... off
Rotationally invariant grid construction     ... off
Angular grids for H and He will be reduced by one unit

Total number of grid points                  ...    46966
Total number of batches                      ...      738
Average number of points per batch           ...       63
Average number of grid points per atom       ...     4270

--------------------
COSX GRID GENERATION
--------------------

GRIDX 1
-------
General Integration Accuracy     IntAcc      ... 3.816
Radial Grid Type                 RadialGrid  ... OptM3 with GC (2021)
Angular Grid (max. ang.)         AngularGrid ... 1 (Lebedev-50)
Angular grid pruning method      GridPruning ... 4 (adaptive)
Weight generation scheme         WeightScheme... mBecke (2022)
Basis function cutoff            BFCut       ... 1.0000e-11
Integration weight cutoff        WCut        ... 1.0000e-14
Partially contracted basis set               ... on
Rotationally invariant grid construction     ... off
Angular grids for H and He will be reduced by one unit

Total number of grid points                  ...     6073
Total number of batches                      ...       55
Average number of points per batch           ...      110
Average number of grid points per atom       ...      552
UseSFitting                                  ... on

GRIDX 2
-------
General Integration Accuracy     IntAcc      ... 4.020
Radial Grid Type                 RadialGrid  ... OptM3 with GC (2021)
Angular Grid (max. ang.)         AngularGrid ... 2 (Lebedev-110)
Angular grid pruning method      GridPruning ... 4 (adaptive)
Weight generation scheme         WeightScheme... mBecke (2022)
Basis function cutoff            BFCut       ... 1.0000e-11
Integration weight cutoff        WCut        ... 1.0000e-14
Partially contracted basis set               ... on
Rotationally invariant grid construction     ... off
Angular grids for H and He will be reduced by one unit

Total number of grid points                  ...    12791
Total number of batches                      ...      107
Average number of points per batch           ...      119
Average number of grid points per atom       ...     1163
UseSFitting                                  ... on

GRIDX 3
-------
General Integration Accuracy     IntAcc      ... 4.338
Radial Grid Type                 RadialGrid  ... OptM3 with GC (2021)
Angular Grid (max. ang.)         AngularGrid ... 3 (Lebedev-194)
Angular grid pruning method      GridPruning ... 4 (adaptive)
Weight generation scheme         WeightScheme... mBecke (2022)
Basis function cutoff            BFCut       ... 1.0000e-11
Integration weight cutoff        WCut        ... 1.0000e-14
Partially contracted basis set               ... on
Rotationally invariant grid construction     ... off
Angular grids for H and He will be reduced by one unit

Total number of grid points                  ...    28079
Total number of batches                      ...      224
Average number of points per batch           ...      125
Average number of grid points per atom       ...     2553
UseSFitting                                  ... on
Grids setup in   0.5 sec
Initializing property integral containers    ... done (  0.0 sec)

SHARK setup successfully completed in   0.6 seconds

Maximum memory used throughout the entire STARTUP-calculation: 13.3 MB


           ************************************************************
           *        Program running with 6 parallel MPI-processes     *
           *              working on a common directory               *
           ************************************************************
-------------------------------------------------------------------------------
                                 ORCA GUESS
                   Start orbitals & Density for SCF / CASSCF
-------------------------------------------------------------------------------

------------
SCF SETTINGS
------------
Hamiltonian:
 Density Functional     Method          .... DFT(GTOs)
 Exchange Functional    Exchange        .... B88
   X-Alpha parameter    XAlpha          ....  0.666667
   Becke's b parameter  XBeta           ....  0.004200
 Correlation Functional Correlation     .... LYP
 LDA part of GGA corr.  LDAOpt          .... VWN-5
 Gradients option       PostSCFGGA      .... off
 Hybrid DFT is turned on
   Fraction HF Exchange ScalHFX         ....  0.200000
   Scaling of DF-GGA-X  ScalDFX         ....  0.720000
   Scaling of DF-GGA-C  ScalDFC         ....  0.810000
   Scaling of DF-LDA-C  ScalLDAC        ....  1.000000
   Perturbative correction              ....  0.000000
   NL short-range parameter             ....  4.800000
 RI-approximation to the Coulomb term is turned on
   Number of AuxJ basis functions       .... 273
   RIJ-COSX (HFX calculated with COS-X)).... on


General Settings:
 Integral files         IntName         .... orca
 Hartree-Fock type      HFTyp           .... RHF
 Total Charge           Charge          ....    0
 Multiplicity           Mult            ....    1
 Number of Electrons    NEL             ....   32
 Basis Dimension        Dim             ....   91
 Nuclear Repulsion      ENuc            ....    118.3632237865 Eh

Convergence Acceleration:
 AO-DIIS                CNVDIIS         .... on
   Start iteration      DIISMaxIt       ....    12
   Startup error        DIISStart       ....  0.200000
   # of expansion vecs  DIISMaxEq       ....     5
   Bias factor          DIISBfac        ....   1.050
   Max. coefficient     DIISMaxC        ....  10.000
 MO-DIIS                CNVKDIIS        .... off
 Trust-Rad. Augm. Hess. CNVTRAH         .... auto
   Auto Start mean grad. ratio tolernc. ....  1.125000
   Auto Start start iteration           ....    50
   Auto Start num. interpolation iter.  ....    10
   Max. Number of Micro iterations      ....    24
   Max. Number of Macro iterations      .... Maxiter - #DIIS iter
   Number of Davidson start vectors     ....     2
   Converg. threshold    (grad. norm)   ....   1.000e-05
   Grad. Scal. Fac. for Micro threshold ....   0.100
   Minimum threshold for Micro iter.    ....   1.000e-02
   NR start threshold (gradient norm)   ....   1.000e-04
   Initial trust radius                 ....   0.400
   Minimum AH scaling param. (alpha)    ....   1.000
   Maximum AH scaling param. (alpha)    .... 1000.000
   Quad. conv. algorithm                .... NR
   White noise on init. David. guess    .... on
   Maximum white noise                  ....   0.010
   Pseudo random numbers                .... off
   Inactive MOs                         .... canonical
   Orbital update algorithm             .... Taylor
   Preconditioner                       .... Diag
   Full preconditioner red. dimension   ....   250
 SOSCF                 CNVSOSCF           .... on
   Start iteration     SOSCFMaxIt         ....   150
   Startup grad/error  SOSCFStart         ....  0.003300
   Hessian update      SOSCFHessUp        .... L-BFGS
   Autom. constraints  SOSCFAutoConstrain .... off
 Level Shifting         CNVShift        .... on
   Level shift para.    LevelShift      ....    0.2500
   Turn off err/grad.   ShiftErr        ....    0.0010
 Zerner damping         CNVZerner       .... off
 Static damping         CNVDamp         .... on
   Fraction old density DampFac         ....    0.7000
   Max. Damping (<1)    DampMax         ....    0.9800
   Min. Damping (>=0)   DampMin         ....    0.0000
   Turn off err/grad.   DampErr         ....    0.1000

SCF Procedure:
 Maximum # iterations   MaxIter         ....   125
 SCF integral mode      SCFMode         .... Direct
   Integral package                     .... SHARK and LIBINT hybrid scheme
 Reset frequency        DirectResetFreq ....    20
 Integral Threshold     Thresh          ....  2.500e-11 Eh
 Primitive CutOff       TCut            ....  2.500e-12 Eh

Convergence Tolerance:
 Convergence Check Mode ConvCheckMode   .... Total+1el-Energy
 Convergence forced     ConvForced      .... 0
 Energy Change          TolE            ....  1.000e-08 Eh
 1-El. energy change                    ....  1.000e-05 Eh
 Orbital Gradient       TolG            ....  1.000e-05
 Orbital Rotation angle TolX            ....  1.000e-05
 DIIS Error             TolErr          ....  5.000e-07

------------------------------
INITIAL GUESS: MODEL POTENTIAL
------------------------------
Loading Hartree-Fock densities                     ... done
Calculating cut-offs                               ... done
Initializing the effective Hamiltonian             ... done
Setting up the integral package (SHARK)            ... done
Starting the Coulomb interaction                   ... done (   0.0 sec)
Making the grid                                    ... done (   0.1 sec)
Mapping shells                                     ... done
Starting the XC term evaluation                    ... done (   0.0 sec)
  promolecular density results
     # of electrons  =     31.999076069
     EX              =    -24.042381280
     EC              =     -1.028028173
     EX+EC           =    -25.070409453
Transforming the Hamiltonian                       ... done (   0.0 sec)
Diagonalizing the Hamiltonian                      ... done (   0.0 sec)
Back transforming the eigenvectors                 ... done (   0.0 sec)
Now organizing SCF variables                       ... done
                      ------------------
                      INITIAL GUESS DONE (   0.1 sec)
                      ------------------
             **** ENERGY FILE WAS UPDATED (orca.en.tmp) ****
Finished Guess after   0.2 sec
Maximum memory used throughout the entire GUESS-calculation: 6.9 MB


           ************************************************************
           *        Program running with 6 parallel MPI-processes     *
           *              working on a common directory               *
           ************************************************************

-------------------------------------------------------------------------------------------
                                      ORCA LEAN-SCF
                              memory conserving SCF solver
-------------------------------------------------------------------------------------------

----------------------------------------D-I-I-S--------------------------------------------
Iteration    Energy (Eh)           Delta-E    RMSDP     MaxDP     DIISErr   Damp  Time(sec)
-------------------------------------------------------------------------------------------
               ***  Starting incremental Fock matrix formation  ***
    1    -172.7805057920387526     0.00e+00  1.05e-02  7.60e-02  1.70e-01  0.700   0.4
    2    -172.8388266571244571    -5.83e-02  7.62e-03  4.72e-02  9.06e-02  0.700   0.3
                               ***Turning on AO-DIIS***
    3    -172.8632922085194537    -2.45e-02  3.03e-03  1.65e-02  3.56e-02  0.700   0.2
    4    -172.8772532788128728    -1.40e-02  5.04e-03  2.48e-02  1.75e-02  0.000   0.2
    5    -172.9071766869671478    -2.99e-02  9.23e-04  4.92e-03  5.93e-03  0.000   0.2
                              *** Initializing SOSCF ***
---------------------------------------S-O-S-C-F--------------------------------------
Iteration    Energy (Eh)           Delta-E    RMSDP     MaxDP     MaxGrad    Time(sec)
--------------------------------------------------------------------------------------
    6    -172.9073856732124455    -2.09e-04  3.86e-04  2.03e-03  2.38e-03     0.2
               *** Restarting incremental Fock matrix formation ***
    7    -172.9074504876585934    -6.48e-05  2.77e-04  1.71e-03  2.72e-04     0.4
    8    -172.9074491394721349     1.35e-06  1.32e-04  1.14e-03  4.01e-04     0.3
    9    -172.9074529468575747    -3.81e-06  9.15e-05  7.40e-04  1.53e-04     0.3
   10    -172.9074525084571405     4.38e-07  5.27e-05  5.19e-04  2.36e-04     0.3
   11    -172.9074531893338644    -6.81e-07  3.01e-05  1.78e-04  3.06e-05     0.3
   12    -172.9074531472940066     4.20e-08  1.86e-05  1.01e-04  3.98e-05     0.3
   13    -172.9074532183662996    -7.11e-08  4.79e-07  3.68e-06  7.86e-07     0.3
                  *** Gradient check signals convergence ***

               *****************************************************
               *                     SUCCESS                       *
               *           SCF CONVERGED AFTER  13 CYCLES          *
               *****************************************************

Recomputing exchange energy using gridx3       ... done (    0.447 sec)
Old exchange energy                            :     -4.891703197 Eh
New exchange energy                            :     -4.891695395 Eh
Exchange energy change after final integration :      0.000007803 Eh
Total energy after final integration           :   -172.907445416 Eh
             **** ENERGY FILE WAS UPDATED (orca.en.tmp) ****

----------------
TOTAL SCF ENERGY
----------------

Total Energy       :       -172.90744541602055 Eh           -4705.05079 eV

Components:
Nuclear Repulsion  :        118.36322378647624 Eh            3220.82706 eV
Electronic Energy  :       -291.27067700532473 Eh           -7925.87807 eV
One Electron Energy:       -465.98980510810384 Eh          -12680.22725 eV
Two Electron Energy:        174.71912810277914 Eh            4754.34918 eV

Virial components:
Potential Energy   :       -343.90412889630034 Eh           -9358.10710 eV
Kinetic Energy     :        170.99668348027978 Eh            4653.05631 eV
Virial Ratio       :          2.01117426313102

DFT components:
N(Alpha)           :       15.999996201190 electrons
N(Beta)            :       15.999996201190 electrons
N(Total)           :       31.999992402379 electrons
E(X)               :      -19.446084259080 Eh       
E(C)               :       -1.222579883901 Eh       
E(XC)              :      -20.668664142981 Eh       

---------------
SCF CONVERGENCE
---------------

  Last Energy change         ...    7.1072e-08  Tolerance :   1.0000e-08
  Last MAX-Density change    ...    3.6849e-06  Tolerance :   1.0000e-07
  Last RMS-Density change    ...    4.7944e-07  Tolerance :   5.0000e-09
  Last DIIS Error            ...    2.3755e-03  Tolerance :   5.0000e-07
  Last Orbital Gradient      ...    7.8575e-07  Tolerance :   1.0000e-05
  Last Orbital Rotation      ...    8.8641e-07  Tolerance :   1.0000e-05


----------------
ORBITAL ENERGIES
----------------

  NO   OCC          E(Eh)            E(eV) 
   0   2.0000     -14.361342      -390.7920 
   1   2.0000     -10.201692      -277.6021 
   2   2.0000     -10.200462      -277.5687 
   3   2.0000     -10.182366      -277.0763 
   4   2.0000      -0.942045       -25.6343 
   5   2.0000      -0.750456       -20.4209 
   6   2.0000      -0.661113       -17.9898 
   7   2.0000      -0.558857       -15.2073 
   8   2.0000      -0.492677       -13.4064 
   9   2.0000      -0.463629       -12.6160 
  10   2.0000      -0.429934       -11.6991 
  11   2.0000      -0.396350       -10.7852 
  12   2.0000      -0.379596       -10.3293 
  13   2.0000      -0.369726       -10.0608 
  14   2.0000      -0.288421        -7.8483 
  15   2.0000      -0.182551        -4.9675 
  16   0.0000      -0.011845        -0.3223 
  17   0.0000       0.057963         1.5772 
  18   0.0000       0.082001         2.2314 
  19   0.0000       0.094968         2.5842 
  20   0.0000       0.117187         3.1888 
  21   0.0000       0.138769         3.7761 
  22   0.0000       0.145054         3.9471 
  23   0.0000       0.148922         4.0524 
  24   0.0000       0.219294         5.9673 
  25   0.0000       0.260364         7.0849 
  26   0.0000       0.325732         8.8636 
*Only the first 10 virtual orbitals were printed.

                    ********************************
                    * MULLIKEN POPULATION ANALYSIS *
                    ********************************

-----------------------
MULLIKEN ATOMIC CHARGES
-----------------------
   0 C :    0.056196
   1 C :   -0.113483
   2 N :   -0.086851
   3 C :   -0.118451
   4 H :   -0.004832
   5 H :    0.020115
   6 H :    0.011932
   7 H :    0.020074
   8 H :    0.152338
   9 H :    0.039575
  10 H :    0.023390
Sum of atomic charges:   -0.0000000

--------------------------------
MULLIKEN REDUCED ORBITAL CHARGES
--------------------------------
  0 C s       :     2.960983  s :     2.960983
      pz      :     0.983849  p :     2.953797
      px      :     0.972744
      py      :     0.997204
      dz2     :     0.007427  d :     0.029025
      dxz     :     0.005644
      dyz     :     0.002024
      dx2y2   :     0.004601
      dxy     :     0.009329

  1 C s       :     3.152981  s :     3.152981
      pz      :     0.924000  p :     2.909995
      px      :     0.890841
      py      :     1.095153
      dz2     :     0.012976  d :     0.050508
      dxz     :     0.015631
      dyz     :     0.002276
      dx2y2   :     0.009888
      dxy     :     0.009738

  2 N s       :     3.444193  s :     3.444193
      pz      :     1.440301  p :     3.608627
      px      :     0.981005
      py      :     1.187321
      dz2     :     0.003129  d :     0.034031
      dxz     :     0.009069
      dyz     :     0.002324
      dx2y2   :     0.005088
      dxy     :     0.014421

  3 C s       :     3.144282  s :     3.144282
      pz      :     0.933937  p :     2.935087
      px      :     0.824775
      py      :     1.176375
      dz2     :     0.009713  d :     0.039082
      dxz     :     0.011828
      dyz     :     0.003105
      dx2y2   :     0.007469
      dxy     :     0.006967

  4 H s       :     0.983466  s :     0.983466
      pz      :     0.014053  p :     0.021366
      px      :     0.002151
      py      :     0.005161

  5 H s       :     0.956685  s :     0.956685
      pz      :     0.005286  p :     0.023201
      px      :     0.008910
      py      :     0.009004

  6 H s       :     0.965063  s :     0.965063
      pz      :     0.013278  p :     0.023005
      px      :     0.004570
      py      :     0.005157

  7 H s       :     0.956713  s :     0.956713
      pz      :     0.004808  p :     0.023213
      px      :     0.005943
      py      :     0.012461

  8 H s       :     0.794266  s :     0.794266
      pz      :     0.017255  p :     0.053396
      px      :     0.020206
      py      :     0.015936

  9 H s       :     0.936179  s :     0.936179
      pz      :     0.006733  p :     0.024246
      px      :     0.008601
      py      :     0.008912

 10 H s       :     0.954312  s :     0.954312
      pz      :     0.014085  p :     0.022298
      px      :     0.002848
      py      :     0.005365



                     *******************************
                     * LOEWDIN POPULATION ANALYSIS *
                     *******************************

----------------------
LOEWDIN ATOMIC CHARGES
----------------------
   0 C :   -0.066754
   1 C :   -0.070705
   2 N :    0.018919
   3 C :   -0.122504
   4 H :    0.001420
   5 H :    0.030436
   6 H :    0.028694
   7 H :    0.027315
   8 H :    0.136120
   9 H :    0.015714
  10 H :    0.001345

-------------------------------
LOEWDIN REDUCED ORBITAL CHARGES
-------------------------------
  0 C s       :     2.841588  s :     2.841588
      pz      :     1.054359  p :     3.149543
      px      :     1.037306
      py      :     1.057879
      dz2     :     0.019393  d :     0.075623
      dxz     :     0.015532
      dyz     :     0.004528
      dx2y2   :     0.012234
      dxy     :     0.023936

  1 C s       :     2.867653  s :     2.867653
      pz      :     1.025619  p :     3.080324
      px      :     0.973988
      py      :     1.080717
      dz2     :     0.033396  d :     0.122727
      dxz     :     0.042934
      dyz     :     0.004265
      dx2y2   :     0.023976
      dxy     :     0.018157

  2 N s       :     3.122485  s :     3.122485
      pz      :     1.461612  p :     3.779418
      px      :     1.139670
      py      :     1.178136
      dz2     :     0.007009  d :     0.079178
      dxz     :     0.022229
      dyz     :     0.003403
      dx2y2   :     0.013001
      dxy     :     0.033536

  3 C s       :     2.900646  s :     2.900646
      pz      :     1.023622  p :     3.126208
      px      :     0.923842
      py      :     1.178745
      dz2     :     0.026509  d :     0.095650
      dxz     :     0.030950
      dyz     :     0.006806
      dx2y2   :     0.016771
      dxy     :     0.014613

  4 H s       :     0.929211  s :     0.929211
      pz      :     0.042433  p :     0.069369
      px      :     0.008775
      py      :     0.018161

  5 H s       :     0.906042  s :     0.906042
      pz      :     0.013854  p :     0.063522
      px      :     0.025704
      py      :     0.023963

  6 H s       :     0.907402  s :     0.907402
      pz      :     0.038787  p :     0.063904
      px      :     0.012505
      py      :     0.012611

  7 H s       :     0.909269  s :     0.909269
      pz      :     0.012004  p :     0.063416
      px      :     0.016586
      py      :     0.034826

  8 H s       :     0.710483  s :     0.710483
      pz      :     0.042799  p :     0.153397
      px      :     0.066993
      py      :     0.043605

  9 H s       :     0.910207  s :     0.910207
      pz      :     0.019718  p :     0.074079
      px      :     0.025383
      py      :     0.028978

 10 H s       :     0.926717  s :     0.926717
      pz      :     0.044376  p :     0.071938
      px      :     0.009223
      py      :     0.018339



                      *****************************
                      * MAYER POPULATION ANALYSIS *
                      *****************************

  NA   - Mulliken gross atomic population
  ZA   - Total nuclear charge
  QA   - Mulliken gross atomic charge
  VA   - Mayer's total valence
  BVA  - Mayer's bonded valence
  FA   - Mayer's free valence

  ATOM       NA         ZA         QA         VA         BVA        FA
  0 C      5.9438     6.0000     0.0562     3.9315     3.9315     0.0000
  1 C      6.1135     6.0000    -0.1135     4.0164     4.0164    -0.0000
  2 N      7.0869     7.0000    -0.0869     3.3105     3.3105    -0.0000
  3 C      6.1185     6.0000    -0.1185     3.7208     3.7208    -0.0000
  4 H      1.0048     1.0000    -0.0048     0.9944     0.9944     0.0000
  5 H      0.9799     1.0000     0.0201     0.9833     0.9833     0.0000
  6 H      0.9881     1.0000     0.0119     1.0079     1.0079     0.0000
  7 H      0.9799     1.0000     0.0201     0.9798     0.9798    -0.0000
  8 H      0.8477     1.0000     0.1523     1.0380     1.0380    -0.0000
  9 H      0.9604     1.0000     0.0396     0.9857     0.9857    -0.0000
 10 H      0.9766     1.0000     0.0234     0.9864     0.9864    -0.0000

  Mayer bond orders larger than 0.100000
B(  0-C ,  1-C ) :   1.0760 B(  0-C ,  5-H ) :   0.9544 B(  0-C ,  6-H ) :   0.9646 
B(  0-C ,  7-H ) :   0.9550 B(  1-C ,  2-N ) :   1.6147 B(  1-C ,  3-C ) :   0.2979 
B(  1-C ,  4-H ) :   0.9558 B(  2-N ,  3-C ) :   1.0542 B(  2-N ,  8-H ) :   0.5947 
B(  3-C ,  8-H ) :   0.4029 B(  3-C ,  9-H ) :   0.9657 B(  3-C , 10-H ) :   0.9508 


-------
TIMINGS
-------

Total SCF time: 0 days 0 hours 0 min 4 sec 

Total time                  ....       4.494 sec
Sum of individual times     ....       4.230 sec  ( 94.1%)

SCF preparation             ....       0.156 sec  (  3.5%)
Fock matrix formation       ....       3.907 sec  ( 86.9%)
  Startup                   ....       0.004 sec  (  0.1% of F)
  Split-RI-J                ....       0.288 sec  (  7.4% of F)
  Chain of spheres X        ....       2.795 sec  ( 71.5% of F)
  XC integration            ....       0.927 sec  ( 23.7% of F)
    XC Preparation          ....       0.000 sec  (  0.0% of XC)
    Basis function eval.    ....       0.253 sec  ( 27.3% of XC)
    Density eval.           ....       0.125 sec  ( 13.5% of XC)
    XC-Functional eval.     ....       0.063 sec  (  6.8% of XC)
    XC-Potential eval.      ....       0.151 sec  ( 16.3% of XC)
Diagonalization             ....       0.000 sec  (  0.0%)
Density matrix formation    ....       0.023 sec  (  0.5%)
Total Energy calculation    ....       0.014 sec  (  0.3%)
Population analysis         ....       0.009 sec  (  0.2%)
Orbital Transformation      ....       0.011 sec  (  0.2%)
Orbital Orthonormalization  ....       0.000 sec  (  0.0%)
DIIS solution               ....       0.061 sec  (  1.3%)
SOSCF solution              ....       0.049 sec  (  1.1%)
Finished LeanSCF after   4.5 sec

Maximum memory used throughout the entire LEANSCF-calculation: 8.2 MB


-------------------------------------------------------------------------------
                          DFT DISPERSION CORRECTION                            
                                                                               
                              DFTD3 V3.1  Rev 1                                
                          USING Becke-Johnson damping                          
-------------------------------------------------------------------------------
The B3LYP functional is recognized
Active option DFTDOPT                   ...         4   

molecular C6(AA) [au] = 910.269546 


            DFT-D V3
 parameters
 s6 scaling factor         :     1.0000 
 a1 scaling factor         :     0.3981 
 s8 scaling factor         :     1.9889 
 a2 scaling factor         :     4.4211 
 ad hoc parameters k1-k3   :    16.0000     1.3333    -4.0000 

 Edisp/kcal,au: -6.652022307764  -0.010600671182 
 E6   /kcal   :  -3.299682783 
 E8   /kcal   :  -3.352339525 
 % E8         :  50.395794994 

-------------------------   ----------------
Dispersion correction           -0.010600671
-------------------------   ----------------


-------------------------   --------------------
FINAL SINGLE POINT ENERGY      -172.918046087203
-------------------------   --------------------



           ************************************************************
           *        Program running with 6 parallel MPI-processes     *
           *              working on a common directory               *
           ************************************************************
------------------------------------------------------------------------------
                         ORCA SCF GRADIENT CALCULATION
------------------------------------------------------------------------------

Nuc. rep. gradient        (SHARK) ... done (  0.0 sec)
HCore & Overlap gradient  (SHARK) ... done (  0.0 sec)
Split-RIJ-J gradient      (SHARK) ... done (  0.1 sec)
done (  1.9 sec)
XC gradient                       ... done (  0.4 sec)
Dispersion correction             ... done (  0.0 sec)

-------------------
DISPERSION GRADIENT
-------------------

   1   C   :   -0.000322445   -0.000008390   -0.000071525
   2   C   :   -0.000061123    0.000001041    0.000059055
   3   N   :    0.000253528    0.000007982   -0.000008776
   4   C   :   -0.000312970   -0.000621645   -0.000968472
   5   H   :   -0.000080847    0.000006927    0.000167748
   6   H   :   -0.000160790    0.000031395   -0.000026087
   7   H   :   -0.000156511    0.000006379   -0.000123470
   8   H   :   -0.000166007   -0.000073124   -0.000039964
   9   H   :    0.000732786    0.000636268    0.000981897
  10   H   :    0.000114983    0.000002760    0.000012402
  11   H   :    0.000159397    0.000010407    0.000017191

Difference to translation invariance:
           :   -0.0000000000   -0.0000000000   -0.0000000000

Difference to rotation invariance:
           :   -0.0000000000    0.0000000000   -0.0000000000

Norm of the Dispersion gradient    ...    0.0019195794
RMS gradient                       ...    0.0003341559
MAX gradient                       ...    0.0009818972

------------------
CARTESIAN GRADIENT
------------------

   1   C   :    0.000041533    0.000083117    0.000048124
   2   C   :    0.000025783   -0.000004913   -0.000063550
   3   N   :    0.000048422    0.000000693   -0.000043247
   4   C   :   -0.000013412    0.000004158   -0.000116950
   5   H   :    0.000001660   -0.000022105    0.000047852
   6   H   :   -0.000004396   -0.000060794    0.000004970
   7   H   :    0.000019387   -0.000001498   -0.000037791
   8   H   :    0.000000824   -0.000002697    0.000017003
   9   H   :   -0.000042568    0.000015549    0.000059080
  10   H   :   -0.000019168   -0.000008006   -0.000003500
  11   H   :   -0.000058064   -0.000003505    0.000088009

Difference to translation invariance:
           :    0.0000000000    0.0000000000   -0.0000000000

Difference to rotation invariance:
           :   -0.0000148692   -0.0000494820    0.0000359868

Norm of the Cartesian gradient     ...    0.0002439438
RMS gradient                       ...    0.0000424652
MAX gradient                       ...    0.0001169499

-------
TIMINGS
-------

Total SCF gradient time     ....        2.549 sec

Densities                   ....       0.000 sec  (  0.0%)
One electron gradient       ....       0.019 sec  (  0.8%)
RI-J Coulomb gradient       ....       0.145 sec  (  5.7%)
COSX gradient               ....       1.933 sec  ( 75.9%)
XC gradient                 ....       0.415 sec  ( 16.3%)

Maximum memory used throughout the entire SCFGRAD-calculation: 26.8 MB


           ************************************************************
           *        Program running with 6 parallel MPI-processes     *
           *              working on a common directory               *
           ************************************************************

------------------------------------------------------------------------------
                              ORCA PROPERTY CALCULATIONS
------------------------------------------------------------------------------

GBWName                                 ... orca.gbw
Number of atoms                         ...     11
Number of basis functions               ...     91
Max core memory                         ...   4096 MB

Electric properties:
Dipole moment                           ... YES
Quadrupole moment                       ...  NO
Static polarizability (Dipole/Dipole)   ...  NO
Static polarizability (Dipole/Quad.)    ...  NO
Static polarizability (Quad./Quad.)     ...  NO
Static polarizability (Velocity)        ...  NO
Static hyperpolarizability              ...  NO

Atomic electric properties:
Dipole moment                           ...  NO
Quadrupole moment                       ...  NO
Static polarizability                   ...  NO

Choice of electric origin               ... Center of mass
Position of electric origin             ...     0.220212     0.120042     0.011479

General magnetic properties:
Magnetizability                         ...  NO

EPR properties:
g-Tensor (aka g-matrix)                 ...  NO
Zero-Field splitting spin-orbit         ...  NO
Zero-field splitting spin-spin          ...  NO
Hyperfine couplings                     ...  NO (   0 nuclei)
Quadrupole couplings                    ...  NO (   0 nuclei)
Contact density                         ...  NO (   0 nuclei)

NMR properties:
Chemical shifts                         ...  NO (   0 nuclei)
Spin-rotation constants                 ...  NO (   0 nuclei)
Spin-spin couplings                     ...  NO (   0 nuclei,    0 pairs)

Choice of magnetic origin               ... GIAO
Position of magnetic origin             ...     0.000000     0.000000     0.000000

Properties with geometric perturbations:
SCF Hessian                             ...  NO
IR spectrum                             ...  NO
VCD spectrum                            ...  NO
X-ray spectroscopy properties:
SCF XES/XAS/RIXS spectra                ...  NO

SCF SOC stabilization energy            ...  NO
Diagonal Born-Oppenheimer correction    ...  NO

-------------
DIPOLE MOMENT
-------------

Method             : SCF
Type of density    : Electron Density
Multiplicity       :   1
Irrep              :   0
Energy             :  -172.9074454160205505 Eh
Basis              : AO
                                X                 Y                 Z
Electronic contribution:      1.082845939       0.528301373       0.074960378
Nuclear contribution   :     -1.211011039      -0.690123238      -0.103690547
                        -----------------------------------------
Total Dipole Moment    :     -0.128165100      -0.161821865      -0.028730169
                        -----------------------------------------
Magnitude (a.u.)       :      0.208417925
Magnitude (Debye)      :      0.529756265



--------------------
Rotational spectrum 
--------------------
 
Rotational constants in cm-1:             1.300550             0.135344             0.127236 
Rotational constants in MHz :         38989.497871          4057.521506          3814.430721 

Dipole components along the rotational axes: 
x,y,z [a.u.] :    -0.141821    -0.004405    -0.152661 
x,y,z [Debye]:    -0.360481    -0.011198    -0.388033 

 

Dipole moment calculation done in   0.0 sec 

Maximum memory used throughout the entire PROP-calculation: 4.9 MB

--------------------------------
SUGGESTED CITATIONS FOR THIS RUN
--------------------------------

Below you find a list of papers that are relevant to this ORCA run
We neither can nor want to force you to cite these papers, but we appreciate if you do
You receive ORCA, which is the product of decades of hard work by many enthusiastic individuals, for free
The only thing we kindly ask in return is that you cite our papers,
We deeply appreciate it, if you show your appreciation for ORCA by not just citing the generic ORCA reference.

Please note that relegating all ORCA citations to the supporting information does *not* help us.
SI sections are not indexed - citations you put there will not count into any citation statistics
But we need these citations in order to attract the funding resources that allow us to do what we are doing

Therefore, if you are a happy ORCA user, please consider citing a few of the papers listed below in the main body of your paper

In addition to the list printed below, the program has created the file orca.bibtex that contains the list in bibtex format
You can import this file easily into all common literature databanks and citation aid programs


List of essential papers. We consider these as the minimum necessary citations

  1. Neese, F.
     Software update: the ORCA program system, version 6.0
     WIRES Comput. Molec. Sci. 2025 15(1), e70019
     doi.org/10.1002/wcms.7019

List of papers to cite with high priority. The work reported in these papers was absolutely
necessary for this run to complete.
Our perspective: the developers of density functionals and basis sets usually get cited in chemistry papers
Good! But without the algorithms to do something with them, the functionals or basis sets would not do anything.
Hence, in our opinion, the algorithm design and method developments papers are equally worthy of getting cited

  1. Neese, F.
     An improvement of the resolution of the identity approximation for the formation of the Coulomb matrix
     J. Comp. Chem. 2003 24(14), 1740-1747
     doi.org/10.1002/jcc.10318
  2. Neese, F.; Wennmohs, F.; Hansen, A.; Becker, U.
     Efficient, approximate and parallel Hartree-Fock and hybrid DFT calculations. A 'chain-of-spheres' algorithm for the Hartree-Fock exchange
     Chem. Phys. 2009 356(1-3), 98-109
     doi.org/10.1016/j.chemphys.2008.10.036
  3. Grimme, S.; Antony, J.; Ehrlich, S.; Krieg, H.
     A consistent and accurate ab initio parametrization of density functional dispersion correction (DFT-D) for the 94 elements H-Pu
     J. Chem. Phys. 2010 132 , 154104
     doi.org/10.1063/1.3382344
  4. Grimme, S.; Ehrlich, S.; Goerigk, L.
     Effect of the damping function in dispersion corrected density functional theory
     J. Comput. Chem. 2011 32(7), 1456-1465
     doi.org/10.1002/jcc.21759
  5. Helmich-Paris, B.; de Souza, B.; Neese, F.; Izsák, R.
     An improved chain of spheres for exchange algorithm
     J. Chem. Phys. 2021 155(10), 104109
     doi.org/10.1063/5.0058766
  6. Neese, F.
     The SHARK Integral Generation and Digestion System
     J. Comp. Chem. 2022 44(3), 381
     doi.org/10.1002/jcc.26942

List of suggested additional citations. These are papers that are important in the 'surrounding' of 
of this run, or papers that preceded the highly important papers. If you like your results we are grateful for a citation.

  1. Izsak, R.; Neese, F.
     An overlap fitted chain of spheres exchange method
     J. Chem. Phys. 2011 135 , 144105
     doi.org/10.1063/1.3646921
  2. Izsak, R.; Hansen, A.; Neese, F.
     The resolution of identity and chain of spheres approximations for the LPNO-CCSD singles Fock term
     Molec. Phys. 2012 110 , 2413-2417
     doi.org/10.1080/00268976.2012.687466
  3. Neese, F.
     The ORCA program system
     WIRES Comput. Molec. Sci. 2012 2(1), 73-78
     doi.org/10.1002/wcms.81
  4. Izsak, R.; Neese, F.; Klopper, W.
     Robust fitting techniques in the chain of spheres approximation to the Fock exchange: The role of the complementary space
     J. Chem. Phys. 2013 139 , 
     doi.org/10.1063/1.4819264
  5. Neese, F.
     Software update: the ORCA program system, version 4.0
     WIRES Comput. Molec. Sci. 2018 8(1), 1-6
     doi.org/10.1002/wcms.1327
  6. Neese, F.; Wennmohs, F.; Becker, U.; Riplinger, C.
     The ORCA quantum chemistry program package
     J. Chem. Phys. 2020 152(22), 224108
     doi.org/10.1063/5.0004608
  7. Neese, F.
     Software update: The ORCA program system—Version 5.0
     WIRES Comput. Molec. Sci. 2022 12(1), e1606
     doi.org/10.1002/wcms.1606

List of optional additional citations

  1. Neese, F.
     Approximate second-order SCF convergence for spin unrestricted wavefunctions
     Chem. Phys. Lett. 2000 325(1-3), 93-98
     doi.org/10.1016/s0009-2614(00)00662-x

Timings for individual modules:

Sum of individual times          ...       10.033 sec (=   0.167 min)
Startup calculation              ...        0.987 sec (=   0.016 min)   9.8 %
SCF iterations                   ...        5.397 sec (=   0.090 min)  53.8 %
Property calculations            ...        0.472 sec (=   0.008 min)   4.7 %
SCF Gradient evaluation          ...        3.176 sec (=   0.053 min)  31.7 %
                             ****ORCA TERMINATED NORMALLY****
TOTAL RUN TIME: 0 days 0 hours 0 minutes 10 seconds 638 msec
