
                                 *****************
                                 * O   R   C   A *
                                 *****************

                                            #,                                       
                                            ###                                      
                                            ####                                     
                                            #####                                    
                                            ######                                   
                                           ########,                                 
                                     ,,################,,,,,                         
                               ,,#################################,,                 
                          ,,##########################################,,             
                       ,#########################################, ''#####,          
                    ,#############################################,,   '####,        
                  ,##################################################,,,,####,       
                ,###########''''           ''''###############################       
              ,#####''   ,,,,##########,,,,          '''####'''          '####       
            ,##' ,,,,###########################,,,                        '##       
           ' ,,###''''                  '''############,,,                           
         ,,##''                                '''############,,,,        ,,,,,,###''
      ,#''                                            '''#######################'''  
     '                                                          ''''####''''         
             ,#######,   #######,   ,#######,      ##                                
            ,#'     '#,  ##    ##  ,#'     '#,    #''#        ,####,    ,#,          
            ##       ##  ##   ,#'  ##            #'  '#       #'       ,# #          
            ##       ##  #######   ##           ,######,      #####,      #          
            '#,     ,#'  ##    ##  '#,     ,#' ,#      #,     #,   #      #          
             '#######'   ##     ##  '#######'  #'      '#     '####' #    #          



                #########################################################
                #                        -***-                          #
                #          Department of theory and spectroscopy        #
                #                                                       #
                #                      Frank Neese                      #
                #                                                       #
                #     Directorship, Architecture, Infrastructure        #
                #                    SHARK, DRIVERS                     #
                #        Core code/Algorithms in most modules           #
                #                                                       #
                #        Max Planck Institute fuer Kohlenforschung      #
                #                Kaiser Wilhelm Platz 1                 #
                #                 D-45470 Muelheim/Ruhr                 #
                #                      Germany                          #
                #                                                       #
                #                  All rights reserved                  #
                #                        -***-                          #
                #########################################################


                         Program Version 6.1.0  -  RELEASE   -
                                (GIT: $679e74b$)
                          ($2025-06-10 18:02:51 +0200$)


 With contributions from (in alphabetic order):
[Max-Planck-Institut fuer Kohlenforschung]                               
  Daniel Aravena         : Magnetic Suceptibility                        
  Michael Atanasov       : Ab Initio Ligand Field Theory (pilot matlab implementation)
  Alexander A. Auer      : GIAO ZORA, VPT2 properties, NMR spectrum      
  Ute Becker             : All parallelization in ORCA, NUMFREQ, NUMCALC 
  Giovanni Bistoni       : ED, misc. LED, open-shell LED, HFLD           
  Dmytro Bykov           : pre 5.0 version of the SCF Hessian            
  Marcos Casanova-Páez   : Triplet and SCS-CIS(D). UHF-(DLPNO)-IP/EA/STEOM-CCSD. UHF-CVS-IP/STEOM-CCSD   
  Vijay G. Chilkuri      : MRCI spin determinant printing, contributions to CSF-ICE 
  Pauline Colinet        : FMM embedding                                 
  Dipayan Datta          : RHF DLPNO-CCSD density                        
  Achintya Kumar Dutta   : EOM-CC, STEOM-CC                              
  Nicolas Foglia         : Exact transition moments, OPA infrastructure, MCD improvements    
  Dmitry Ganyushin       : Spin-Orbit,Spin-Spin,Magnetic field MRCI      
  Miquel Garcia-Rates    : C-PCM and meta-GGA Hessian, CCSD/C-PCM, Gaussian charge scheme 
  Tiago L. C. Gouveia    : GS-ROHF, GS-ROCIS                             
  Yang Guo               : DLPNO-NEVPT2, F12-NEVPT2, CIM, IAO-localization        
  Andreas Hansen         : Spin unrestricted coupled pair/coupled cluster methods 
  Ingolf Harden          : AUTO-CI MPn and infrastructure                
  Benjamin Helmich-Paris : MC-RPA, TRAH-(SCF,CASSCF), AVAS, COSX integrals, SCF dyn. polar., MC-PDFT, srDFT 
  Lee Huntington         : MR-EOM, pCC                                   
  Robert Izsak           : Overlap fitted RIJCOSX, COSX-SCS-MP3, EOM     
  Riya Kayal             : Wick's Theorem for AUTO-CI, AUTO-CI UHF-CCSDT 
  Emily Kempfer          : AUTO-CI RHF CISDT and CCSDT, approximate NEVPT4
  Christian Kollmar      : KDIIS, OOCD, Brueckner-CCSD(T), CCSD density, CASPT2, CASPT2-K, improved NEVPT2 
  Axel Koslowski         : Symmetry handling                             
  Simone Kossmann        : meta-GGA functionals, TD-DFT gradient, OOMP2, (MP2 Hessian; deprecated post 5.0) 
  Lucas Lang             : DCDCAS, Hyperfine gauge corrections, ICE-SOC+SSC
  Marvin Lechner         : AUTO-CI (C++ implementation), FIC-MRCC        
  Spencer Leger          : CASSCF response                               
  Dagmar Lenk            : GEPOL surface, SMD, ORCA-2-JSON               
  Dimitrios Liakos       : Extrapolation schemes; Compound Job, Property file
  Dimitrios Manganas     : Further ROCIS development; embedding schemes. LFT, Crystal Embedding 
  Dimitrios Pantazis     : SARC Basis sets                               
  Anastasios Papadopoulos: AUTO-CI, single reference methods and gradients 
  Taras Petrenko         : pre 6.0 DFT Hessian and TD-DFT gradient,  ECA, NRVS 
  Petra Pikulova         : Analytic Raman intensities                    
  Peter Pinski           : DLPNO-MP2, DLPNO-MP2 Gradient                 
  Shashank Vittal Rao    : ES-AILFT, MagRelax                            
  Christoph Reimann      : Effective Core Potentials                     
  Marius Retegan         : Local ZFS, SOC                                
  Christoph Riplinger    : Optimizer, TS searches, QM/MM, DLPNO-CCSD(T), (RO)-DLPNO pert. Triples 
  Michael Roemelt        : Original ROCIS implementation, recursive CI coupling coefficients
  Masaaki Saitow         : Open-shell DLPNO-CCSD energy and density      
  Barbara Sandhoefer     : DKH picture change effects                    
  Yorick L. A. Schmerwitz: GMF and freeze-and-release deltaSCF, NEB S-IDPP initial path                    
  Kantharuban Sivalingam : CASSCF convergence/infrastructure, NEVPT2, NEVPT3, NEVPT4(SD), FIC-MRCI and CEPA variants
  Bernardo de Souza      : ESD, SOC TD-DFT                               
  Georgi L. Stoychev     : AutoAux, RI-MP2 NMR, DLPNO-MP2 response, X2C  
  Van Anh Tran           : RI-MP2 g-tensors                              
  Willem Van den Heuvel  : Paramagnetic NMR                              
  Zikuan Wang            : NOTCH, Electric field optimization            
  Frank Wennmohs         : Technical directorship and infrastructure     
  Hang Xu                : AUTO-CI-Response properties                   
                                                                         
[FACCTs GmbH]                                                            
  Markus Bursch, Nicolas Foglia, Miquel Garcia-Rates, Ingolf Harden, Hagen Neugebauer, Anastasios Papadopoulos, 
  Christoph Riplinger, Bernardo de Souza, Georgi L. Stoychev                                                    
                                                                 
  APM, various basis sets, CI-OPT, improved COSX, DLPNO-Multilevel,           
  DOCKER, DRACO, updates on ESD, Fragmentator, GOAT, IRC, LR-CPCM, L-BFGS, MBIS, meta-GGA TD-DFT gradient, ML-optimized integration grids, 
  MM, NACMEs, nearIR, NEB, NEB-TS, NL-DFT gradient (VV10), 2- and 3-layer-ONIOM, interface openCOSMO-RS, QMMM,   
  Crystal-QMMM, RESP, rigid body optimization, SF, symmetry and pop. for TD-DFT, various functionals, SOLVATOR                                   
                                                                         
[Other institutions]                                                     
  V. Asgeirsson          : NEB                                           
  Christoph Bannwarth    : sTDA-DFT, sTD-DFT, PBEh-3c, B97-3c, D3        
  Giovanni Bistoni       : ETS/NOCV, ADLD/ADEX, COVALED                  
  Martin Brehm           : Molecular dynamics                            
  Ronald Cardenas        : ETS/NOCV                                      
  Martina Colucci        : COVALED                                       
  Sebastian Ehlert       : rSCAN, r2SCAN, r2SCAN-3c, D4, dhf basis sets  
  Marvin Friede          : D4 for Fr, Ra, Ac-Lr                          
  Lars Goerigk           : TD-DFT with DH, B97 family of functionals     
  Stefan Grimme          : VdW corrections, initial TS optimization, DFT functionals, gCP, sTDA/sTD-DF 
  Waldemar Hujo          : DFT-NL                                        
  H. Jonsson             : NEB                                           
  Holger Kruse           : gCP                                           
  Marcel Mueller         : wB97X-3c, vDZP basis set                      
  Hagen Neugebauer       : wr2SCAN, Native XTB                           
  Gianluca Regni         : ADLD/ADEX                                     
  Tobias Risthaus        : pre 6.0 range-separated hybrid DFT and stability analysis
  Lukas Wittmann         : regularized MP2, r2SCAN double-hybrids, wr2SCAN        
                                                                         
We gratefully acknowledge several colleagues who have allowed us to      
interface, adapt or use parts of their codes:                            
  Ed Valeev, F. Pavosevic, A. Kumar             : LibInt (2-el integral package), F12 methods 
  Garnet Chan, S. Sharma, J. Yang, R. Olivares  : DMRG                   
  Ulf Ekstrom                                   : XCFun DFT Library      
  Mihaly Kallay                                 : mrcc  (arbitrary order and MRCC methods)
  Frank Weinhold                                : gennbo (NPA and NBO analysis)           
  Simon Mueller                                 : openCOSMO-RS                            
  Christopher J. Cramer and Donald G. Truhlar   : smd solvation model                     
  S Lehtola, MJT Oliveira, MAL Marques          : LibXC Library                           
  Liviu Ungur et al                             : ANISO software                          


 Your calculation uses the libint2 library for the computation of 2-el integrals
 For citations please refer to: http://libint.valeyev.net

 Your ORCA version has been built with support for libXC version: 7.0.0
 For citations please refer to: https://libxc.gitlab.io

 This ORCA versions uses:
   CBLAS   interface :  Fast vector & matrix operations
   LAPACKE interface :  Fast linear algebra routines
   SCALAPACK package :  Parallel linear algebra routines
   Shared memory     :  Shared parallel matrices
   BLAS/LAPACK       :  OpenBLAS 0.3.29  USE64BITINT DYNAMIC_ARCH NO_AFFINITY Zen SINGLE_THREADED
        Core in use  :  Zen
   Copyright (c) 2011-2014, The OpenBLAS Project


  ***********************************
  * Starting time: Wed Sep 10 13:36:14 2025
  * Host name:     wyk-Server
  * Process ID:    2298396
  * Working dir.:  /home/wyk/Documents/code/openQDC/MGMR/singlepointcalc/74/sp
  ***********************************

Your calculation utilizes the atom-pairwise dispersion correction
with the Becke-Johnson damping scheme (D3BJ)


Warning: RI is on but no J-basis has been assigned. Assigning Def2/J (nothing to worry about!)
================================================================================

----- Orbital basis set information -----
Your calculation utilizes the basis: def2-SVP
   F. Weigend and R. Ahlrichs, Phys. Chem. Chem. Phys. 7, 3297 (2005).

----- AuxJ basis set information -----
Your calculation utilizes the auxiliary basis: def2/J
   H-Rn: F. Weigend, Phys. Chem. Chem. Phys. 8, 1057 (2006).
   Fr-Lr: K. Eichkorn, F. Weigend, O. Treutler, R. Ahlrichs; Theor. Chem. Acc. 97, 119 (1997).

================================================================================
                                        WARNINGS
                       Please study these warnings very carefully!
================================================================================


================================================================================
                                       INPUT FILE
================================================================================
NAME = orca.inp
|  1> ! B3LYP def2-SVP d3 EnGrad 
|  2> %pal nprocs 6 end 
|  3> *xyz 0 1 
|  4> C   -1.02270817005151 -1.30952963485722 0.29179639107253
|  5> C   -1.52576561097888 -0.49384267891554 -0.6503958303623
|  6> C   -1.83534454924658 0.93503184747405 -0.49467718244998
|  7> C   -1.3377255386845 1.7570182179506 0.44355406612825
|  8> C   2.58521446440828 -0.6726851813212 0.07525786017667
|  9> C   1.83520535265853 0.43073097550383 0.64814300011816
| 10> H   -1.75419544271682 -0.918847214865 -1.63576084325907
| 11> H   -0.80601031454675 -0.96013393169854 1.30527374920023
| 12> H   -0.82269601808166 -2.36300636323195 0.07600933953052
| 13> H   3.14862638805093 -0.55996009622006 -0.87201505517066
| 14> H   3.09350374709862 -1.34608618641825 0.78506640844519
| 15> H   1.61694725924749 -1.19165645111908 -0.19696666216922
| 16> H   1.59313366335264 1.1189753457482 -0.19748147698478
| 17> H   -1.64019234470618 2.80715332651849 0.48247241412772
| 18> H   -0.59640197544045 1.42159068740181 1.17615205566263
| 19> H   -2.53159091036315 1.34524733804987 -1.2364282340659
| 20> *
| 21> 
| 22>                          ****END OF INPUT****
================================================================================

                     *******************************
                     * Energy+Gradient Calculation *
                     *******************************

---------------------------------
CARTESIAN COORDINATES (ANGSTROEM)
---------------------------------
  C     -1.022708   -1.309530    0.291796
  C     -1.525766   -0.493843   -0.650396
  C     -1.835345    0.935032   -0.494677
  C     -1.337726    1.757018    0.443554
  C      2.585214   -0.672685    0.075258
  C      1.835205    0.430731    0.648143
  H     -1.754195   -0.918847   -1.635761
  H     -0.806010   -0.960134    1.305274
  H     -0.822696   -2.363006    0.076009
  H      3.148626   -0.559960   -0.872015
  H      3.093504   -1.346086    0.785066
  H      1.616947   -1.191656   -0.196967
  H      1.593134    1.118975   -0.197481
  H     -1.640192    2.807153    0.482472
  H     -0.596402    1.421591    1.176152
  H     -2.531591    1.345247   -1.236428

----------------------------
CARTESIAN COORDINATES (A.U.)
----------------------------
  NO LB      ZA    FRAG     MASS         X           Y           Z
   0 C     6.0000    0    12.011   -1.932638   -2.474652    0.551415
   1 C     6.0000    0    12.011   -2.883279   -0.933227   -1.229070
   2 C     6.0000    0    12.011   -3.468299    1.766954   -0.934804
   3 C     6.0000    0    12.011   -2.527935    3.320283    0.838196
   4 C     6.0000    0    12.011    4.885347   -1.271191    0.142217
   5 C     6.0000    0    12.011    3.468036    0.813964    1.224813
   6 H     1.0000    0     1.008   -3.314949   -1.736370   -3.091140
   7 H     1.0000    0     1.008   -1.523139   -1.814390    2.466610
   8 H     1.0000    0     1.008   -1.554670   -4.465435    0.143637
   9 H     1.0000    0     1.008    5.950042   -1.058171   -1.647870
  10 H     1.0000    0     1.008    5.845875   -2.543734    1.483561
  11 H     1.0000    0     1.008    3.055587   -2.251904   -0.372213
  12 H     1.0000    0     1.008    3.010586    2.114557   -0.373186
  13 H     1.0000    0     1.008   -3.099514    5.304751    0.911741
  14 H     1.0000    0     1.008   -1.127036    2.686417    2.222605
  15 H     1.0000    0     1.008   -4.784014    2.542149   -2.336511

--------------------------------
INTERNAL COORDINATES (ANGSTROEM)
--------------------------------
 C      0   0   0     0.000000000000     0.00000000     0.00000000
 C      1   0   0     1.343926404644     0.00000000     0.00000000
 C      2   1   0     1.470295830264   126.47049138     0.00000000
 C      3   2   1     1.342968409431   126.21353201    20.38770381
 C      1   2   3     3.670090670489   102.78516954   276.36472650
 C      5   1   2     1.451977364292    66.47147467    71.09908762
 H      2   1   3     1.097156895000   118.19429940   181.28064727
 H      1   2   3     1.093696335097   122.00018343     0.93418275
 H      1   2   3     1.093792544213   120.97808422   180.21106296
 H      5   1   2     1.107910608607   124.61246706   318.00759681
 H      5   1   2     1.102567496237   108.01297584   182.97064566
 H      5   1   2     1.131803317733    24.98857719   271.38703047
 H      6   5   1     1.116852618841   106.35112119   266.68223678
 H      4   3   2     1.093519342674   120.67432312   180.68678595
 H      4   3   2     1.094884499818   122.06137848     2.64414060
 H      3   2   1     1.096918577949   115.18000019   199.56086265

---------------------------
INTERNAL COORDINATES (A.U.)
---------------------------
 C      0   0   0     0.000000000000     0.00000000     0.00000000
 C      1   0   0     2.539652848922     0.00000000     0.00000000
 C      2   1   0     2.778456455045   126.47049138     0.00000000
 C      3   2   1     2.537842500333   126.21353201    20.38770381
 C      1   2   3     6.935466253883   102.78516954   276.36472650
 C      5   1   2     2.743839571164    66.47147467    71.09908762
 H      2   1   3     2.073326057494   118.19429940   181.28064727
 H      1   2   3     2.066786547006   122.00018343     0.93418275
 H      1   2   3     2.066968355888   120.97808422   180.21106296
 H      5   1   2     2.093647631134   124.61246706   318.00759681
 H      5   1   2     2.083550612051   108.01297584   182.97064566
 H      5   1   2     2.138798307979    24.98857719   271.38703047
 H      6   5   1     2.110545581562   106.35112119   266.68223678
 H      4   3   2     2.066452079800   120.67432312   180.68678595
 H      4   3   2     2.069031852931   122.06137848     2.64414060
 H      3   2   1     2.072875703534   115.18000019   199.56086265

---------------------
BASIS SET INFORMATION
---------------------
There are 2 groups of distinct atoms

 Group   1 Type C   : 7s4p1d contracted to 3s2p1d pattern {511/31/1}
 Group   2 Type H   : 4s1p contracted to 2s1p pattern {31/1}

Atom   0C    basis set group =>   1
Atom   1C    basis set group =>   1
Atom   2C    basis set group =>   1
Atom   3C    basis set group =>   1
Atom   4C    basis set group =>   1
Atom   5C    basis set group =>   1
Atom   6H    basis set group =>   2
Atom   7H    basis set group =>   2
Atom   8H    basis set group =>   2
Atom   9H    basis set group =>   2
Atom  10H    basis set group =>   2
Atom  11H    basis set group =>   2
Atom  12H    basis set group =>   2
Atom  13H    basis set group =>   2
Atom  14H    basis set group =>   2
Atom  15H    basis set group =>   2
---------------------------------
AUXILIARY/J BASIS SET INFORMATION
---------------------------------
There are 2 groups of distinct atoms

 Group   1 Type C   : 12s5p4d2f1g contracted to 6s4p3d1f1g pattern {711111/2111/211/2/1}
 Group   2 Type H   : 5s2p1d contracted to 3s1p1d pattern {311/2/1}

Atom   0C    basis set group =>   1
Atom   1C    basis set group =>   1
Atom   2C    basis set group =>   1
Atom   3C    basis set group =>   1
Atom   4C    basis set group =>   1
Atom   5C    basis set group =>   1
Atom   6H    basis set group =>   2
Atom   7H    basis set group =>   2
Atom   8H    basis set group =>   2
Atom   9H    basis set group =>   2
Atom  10H    basis set group =>   2
Atom  11H    basis set group =>   2
Atom  12H    basis set group =>   2
Atom  13H    basis set group =>   2
Atom  14H    basis set group =>   2
Atom  15H    basis set group =>   2


           ************************************************************
           *        Program running with 6 parallel MPI-processes     *
           *              working on a common directory               *
           ************************************************************
------------------------------------------------------------------------------
                             ORCA STARTUP CALCULATIONS
                           -- RI-GTO INTEGRALS CHOSEN --
------------------------------------------------------------------------------
------------------------------------------------------------------------------
                   ___                                                        
                  /   \      - P O W E R E D   B Y -                         
                 /     \                                                     
                 |  |  |   _    _      __       _____    __    __             
                 |  |  |  | |  | |    /  \     |  _  \  |  |  /  |          
                  \  \/   | |  | |   /    \    | | | |  |  | /  /          
                 / \  \   | |__| |  /  /\  \   | |_| |  |  |/  /          
                |  |  |   |  __  | /  /__\  \  |    /   |      \           
                |  |  |   | |  | | |   __   |  |    \   |  |\   \          
                \     /   | |  | | |  |  |  |  | |\  \  |  | \   \       
                 \___/    |_|  |_| |__|  |__|  |_| \__\ |__|  \__/        
                                                                              
                      - O R C A' S   B I G   F R I E N D -                    
                                      &                                       
                       - I N T E G R A L  F E E D E R -                       
                                                                              
 v1 FN, 2020, v2 2021, v3 2022-2024                                           
------------------------------------------------------------------------------


----------------------
SHARK INTEGRAL PACKAGE
----------------------

Number of atoms                             ...     16
Number of basis functions                   ...    134
Number of shells                            ...     66
Maximum angular momentum                    ...      2
Integral batch strategy                     ... SHARK/LIBINT Hybrid
RI-J (if used) integral strategy            ... SPLIT-RIJ (Revised 2003 algorithm where possible)
Printlevel                                  ...      1
Contraction scheme used                     ... SEGMENTED contraction
Prescreening option                         ... SCHWARTZ
   Thresh                                   ... 2.500e-11
   Tcut                                     ... 2.500e-12
   Tpresel                                  ... 2.500e-12 
Coulomb Range Separation                    ... NOT USED
Exchange Range Separation                   ... NOT USED
Multipole approximations                    ... NOT USED
Finite Nucleus Model                        ... NOT USED
CABS basis                                  ... NOT available
Auxiliary Coulomb fitting basis             ... AVAILABLE
   # of basis functions in Aux-J            ...    404
   # of shells in Aux-J                     ...    140
   Maximum angular momentum in Aux-J        ...      4
Auxiliary J/K fitting basis                 ... NOT available
Auxiliary Correlation fitting basis         ... NOT available
Auxiliary 'external' fitting basis          ... NOT available

Checking pre-screening integrals            ... done (  0.0 sec) Dimension = 66
   => SHARK Basis and OBASIS are compatible. Storing Pre-screening
Shell pair information
Shell pair cut-off parameter TPreSel        ...   2.5e-12
Total number of shell pairs                 ...      2211
Shell pairs after pre-screening             ...      2093
Total number of primitive shell pairs       ...      7611
Primitive shell pairs kept                  ...      5381
          la=0 lb=0:    710 shell pairs
          la=1 lb=0:    790 shell pairs
          la=1 lb=1:    236 shell pairs
          la=2 lb=0:    212 shell pairs
          la=2 lb=1:    124 shell pairs
          la=2 lb=2:     21 shell pairs

Checking whether 4 symmetric matrices of dimension 134 fit in memory
:Max Core in MB      =   4096.00
 MB in use           =      5.95
 MB left             =   4090.05
 MB needed           =      0.28
 Data fit in memory  = YES
Calculating RI/J V-Matrix + Cholesky decomp.... done (  0.0 sec)
Calculating Nuclear repulsion               ... done (  0.0 sec) ENN=    200.673578561527 Eh

Diagonalization of the overlap matrix:
Smallest eigenvalue                        ... 1.605e-03
Time for diagonalization                   ...    0.003 sec
Threshold for overlap eigenvalues          ... 1.000e-07
Number of eigenvalues below threshold      ... 0
Time for construction of square roots      ...    0.001 sec
Total time needed                          ...    0.005 sec

-------------------
DFT GRID GENERATION
-------------------

General Integration Accuracy     IntAcc      ... 4.388
Radial Grid Type                 RadialGrid  ... OptM3 with GC (2021)
Angular Grid (max. ang.)         AngularGrid ... 4 (Lebedev-302)
Angular grid pruning method      GridPruning ... 4 (adaptive)
Weight generation scheme         WeightScheme... mBecke (2022)
Basis function cutoff            BFCut       ... 1.0000e-11
Integration weight cutoff        WCut        ... 1.0000e-14
Partially contracted basis set               ... off
Rotationally invariant grid construction     ... off
Angular grids for H and He will be reduced by one unit

Total number of grid points                  ...    68686
Total number of batches                      ...     1081
Average number of points per batch           ...       63
Average number of grid points per atom       ...     4293

--------------------
COSX GRID GENERATION
--------------------

GRIDX 1
-------
General Integration Accuracy     IntAcc      ... 3.816
Radial Grid Type                 RadialGrid  ... OptM3 with GC (2021)
Angular Grid (max. ang.)         AngularGrid ... 1 (Lebedev-50)
Angular grid pruning method      GridPruning ... 4 (adaptive)
Weight generation scheme         WeightScheme... mBecke (2022)
Basis function cutoff            BFCut       ... 1.0000e-11
Integration weight cutoff        WCut        ... 1.0000e-14
Partially contracted basis set               ... on
Rotationally invariant grid construction     ... off
Angular grids for H and He will be reduced by one unit

Total number of grid points                  ...     8845
Total number of batches                      ...       79
Average number of points per batch           ...      111
Average number of grid points per atom       ...      553
UseSFitting                                  ... on

GRIDX 2
-------
General Integration Accuracy     IntAcc      ... 4.020
Radial Grid Type                 RadialGrid  ... OptM3 with GC (2021)
Angular Grid (max. ang.)         AngularGrid ... 2 (Lebedev-110)
Angular grid pruning method      GridPruning ... 4 (adaptive)
Weight generation scheme         WeightScheme... mBecke (2022)
Basis function cutoff            BFCut       ... 1.0000e-11
Integration weight cutoff        WCut        ... 1.0000e-14
Partially contracted basis set               ... on
Rotationally invariant grid construction     ... off
Angular grids for H and He will be reduced by one unit

Total number of grid points                  ...    18561
Total number of batches                      ...      154
Average number of points per batch           ...      120
Average number of grid points per atom       ...     1160
UseSFitting                                  ... on

GRIDX 3
-------
General Integration Accuracy     IntAcc      ... 4.338
Radial Grid Type                 RadialGrid  ... OptM3 with GC (2021)
Angular Grid (max. ang.)         AngularGrid ... 3 (Lebedev-194)
Angular grid pruning method      GridPruning ... 4 (adaptive)
Weight generation scheme         WeightScheme... mBecke (2022)
Basis function cutoff            BFCut       ... 1.0000e-11
Integration weight cutoff        WCut        ... 1.0000e-14
Partially contracted basis set               ... on
Rotationally invariant grid construction     ... off
Angular grids for H and He will be reduced by one unit

Total number of grid points                  ...    40603
Total number of batches                      ...      325
Average number of points per batch           ...      124
Average number of grid points per atom       ...     2538
UseSFitting                                  ... on
Grids setup in   0.9 sec
Initializing property integral containers    ... done (  0.0 sec)

SHARK setup successfully completed in   1.0 seconds

Maximum memory used throughout the entire STARTUP-calculation: 18.2 MB


           ************************************************************
           *        Program running with 6 parallel MPI-processes     *
           *              working on a common directory               *
           ************************************************************
-------------------------------------------------------------------------------
                                 ORCA GUESS
                   Start orbitals & Density for SCF / CASSCF
-------------------------------------------------------------------------------

------------
SCF SETTINGS
------------
Hamiltonian:
 Density Functional     Method          .... DFT(GTOs)
 Exchange Functional    Exchange        .... B88
   X-Alpha parameter    XAlpha          ....  0.666667
   Becke's b parameter  XBeta           ....  0.004200
 Correlation Functional Correlation     .... LYP
 LDA part of GGA corr.  LDAOpt          .... VWN-5
 Gradients option       PostSCFGGA      .... off
 Hybrid DFT is turned on
   Fraction HF Exchange ScalHFX         ....  0.200000
   Scaling of DF-GGA-X  ScalDFX         ....  0.720000
   Scaling of DF-GGA-C  ScalDFC         ....  0.810000
   Scaling of DF-LDA-C  ScalLDAC        ....  1.000000
   Perturbative correction              ....  0.000000
   NL short-range parameter             ....  4.800000
 RI-approximation to the Coulomb term is turned on
   Number of AuxJ basis functions       .... 404
   RIJ-COSX (HFX calculated with COS-X)).... on


General Settings:
 Integral files         IntName         .... orca
 Hartree-Fock type      HFTyp           .... RHF
 Total Charge           Charge          ....    0
 Multiplicity           Mult            ....    1
 Number of Electrons    NEL             ....   46
 Basis Dimension        Dim             ....  134
 Nuclear Repulsion      ENuc            ....    200.6735785615 Eh

Convergence Acceleration:
 AO-DIIS                CNVDIIS         .... on
   Start iteration      DIISMaxIt       ....    12
   Startup error        DIISStart       ....  0.200000
   # of expansion vecs  DIISMaxEq       ....     5
   Bias factor          DIISBfac        ....   1.050
   Max. coefficient     DIISMaxC        ....  10.000
 MO-DIIS                CNVKDIIS        .... off
 Trust-Rad. Augm. Hess. CNVTRAH         .... auto
   Auto Start mean grad. ratio tolernc. ....  1.125000
   Auto Start start iteration           ....    50
   Auto Start num. interpolation iter.  ....    10
   Max. Number of Micro iterations      ....    24
   Max. Number of Macro iterations      .... Maxiter - #DIIS iter
   Number of Davidson start vectors     ....     2
   Converg. threshold    (grad. norm)   ....   1.000e-05
   Grad. Scal. Fac. for Micro threshold ....   0.100
   Minimum threshold for Micro iter.    ....   1.000e-02
   NR start threshold (gradient norm)   ....   1.000e-04
   Initial trust radius                 ....   0.400
   Minimum AH scaling param. (alpha)    ....   1.000
   Maximum AH scaling param. (alpha)    .... 1000.000
   Quad. conv. algorithm                .... NR
   White noise on init. David. guess    .... on
   Maximum white noise                  ....   0.010
   Pseudo random numbers                .... off
   Inactive MOs                         .... canonical
   Orbital update algorithm             .... Taylor
   Preconditioner                       .... Diag
   Full preconditioner red. dimension   ....   250
 SOSCF                 CNVSOSCF           .... on
   Start iteration     SOSCFMaxIt         ....   150
   Startup grad/error  SOSCFStart         ....  0.003300
   Hessian update      SOSCFHessUp        .... L-BFGS
   Autom. constraints  SOSCFAutoConstrain .... off
 Level Shifting         CNVShift        .... on
   Level shift para.    LevelShift      ....    0.2500
   Turn off err/grad.   ShiftErr        ....    0.0010
 Zerner damping         CNVZerner       .... off
 Static damping         CNVDamp         .... on
   Fraction old density DampFac         ....    0.7000
   Max. Damping (<1)    DampMax         ....    0.9800
   Min. Damping (>=0)   DampMin         ....    0.0000
   Turn off err/grad.   DampErr         ....    0.1000

SCF Procedure:
 Maximum # iterations   MaxIter         ....   125
 SCF integral mode      SCFMode         .... Direct
   Integral package                     .... SHARK and LIBINT hybrid scheme
 Reset frequency        DirectResetFreq ....    20
 Integral Threshold     Thresh          ....  2.500e-11 Eh
 Primitive CutOff       TCut            ....  2.500e-12 Eh

Convergence Tolerance:
 Convergence Check Mode ConvCheckMode   .... Total+1el-Energy
 Convergence forced     ConvForced      .... 0
 Energy Change          TolE            ....  1.000e-08 Eh
 1-El. energy change                    ....  1.000e-05 Eh
 Orbital Gradient       TolG            ....  1.000e-05
 Orbital Rotation angle TolX            ....  1.000e-05
 DIIS Error             TolErr          ....  5.000e-07

------------------------------
INITIAL GUESS: MODEL POTENTIAL
------------------------------
Loading Hartree-Fock densities                     ... done
Calculating cut-offs                               ... done
Initializing the effective Hamiltonian             ... done
Setting up the integral package (SHARK)            ... done
Starting the Coulomb interaction                   ... done (   0.0 sec)
Making the grid                                    ... done (   0.1 sec)
Mapping shells                                     ... done
Starting the XC term evaluation                    ... done (   0.0 sec)
  promolecular density results
     # of electrons  =     45.996094118
     EX              =    -33.650503560
     EC              =     -1.446848531
     EX+EC           =    -35.097352091
Transforming the Hamiltonian                       ... done (   0.0 sec)
Diagonalizing the Hamiltonian                      ... done (   0.0 sec)
Back transforming the eigenvectors                 ... done (   0.0 sec)
Now organizing SCF variables                       ... done
                      ------------------
                      INITIAL GUESS DONE (   0.2 sec)
                      ------------------
             **** ENERGY FILE WAS UPDATED (orca.en.tmp) ****
Finished Guess after   0.3 sec
Maximum memory used throughout the entire GUESS-calculation: 8.5 MB


           ************************************************************
           *        Program running with 6 parallel MPI-processes     *
           *              working on a common directory               *
           ************************************************************

-------------------------------------------------------------------------------------------
                                      ORCA LEAN-SCF
                              memory conserving SCF solver
-------------------------------------------------------------------------------------------

----------------------------------------D-I-I-S--------------------------------------------
Iteration    Energy (Eh)           Delta-E    RMSDP     MaxDP     DIISErr   Damp  Time(sec)
-------------------------------------------------------------------------------------------
               ***  Starting incremental Fock matrix formation  ***
    1    -233.9534868247263262     0.00e+00  7.96e-03  7.54e-02  1.52e-01  0.700   0.8
    2    -234.0281625626604978    -7.47e-02  6.05e-03  6.22e-02  8.03e-02  0.700   0.5
                               ***Turning on AO-DIIS***
    3    -234.0611984907304191    -3.30e-02  2.77e-03  3.33e-02  3.17e-02  0.700   0.5
    4    -234.0799183801585741    -1.87e-02  5.09e-03  6.21e-02  1.71e-02  0.000   0.4
    5    -234.1195555583453825    -3.96e-02  7.15e-04  8.50e-03  4.70e-03  0.000   0.5
                              *** Initializing SOSCF ***
---------------------------------------S-O-S-C-F--------------------------------------
Iteration    Energy (Eh)           Delta-E    RMSDP     MaxDP     MaxGrad    Time(sec)
--------------------------------------------------------------------------------------
    6    -234.1197717423903555    -2.16e-04  2.42e-04  1.24e-03  1.63e-03     0.4
               *** Restarting incremental Fock matrix formation ***
    7    -234.1197857640713096    -1.40e-05  1.89e-04  1.82e-03  1.83e-04     0.8
    8    -234.1197862532999352    -4.89e-07  5.93e-05  9.15e-04  1.89e-04     0.6
    9    -234.1197876498166579    -1.40e-06  3.25e-05  2.44e-04  7.24e-05     0.6
   10    -234.1197875645818272     8.52e-08  1.78e-05  1.56e-04  9.07e-05     0.5
   11    -234.1197877283875641    -1.64e-07  3.44e-06  2.61e-05  6.09e-06     0.6
   12    -234.1197877307310478    -2.34e-09  1.82e-06  1.82e-05  6.46e-06     0.6
                 **** Energy Check signals convergence ****

               *****************************************************
               *                     SUCCESS                       *
               *           SCF CONVERGED AFTER  12 CYCLES          *
               *****************************************************

Recomputing exchange energy using gridx3       ... done (    1.144 sec)
Old exchange energy                            :     -6.879136661 Eh
New exchange energy                            :     -6.879134154 Eh
Exchange energy change after final integration :      0.000002508 Eh
Total energy after final integration           :   -234.119785221 Eh
             **** ENERGY FILE WAS UPDATED (orca.en.tmp) ****

----------------
TOTAL SCF ENERGY
----------------

Total Energy       :       -234.11978522119972 Eh           -6370.72324 eV

Components:
Nuclear Repulsion  :        200.67357856152745 Eh            5460.60568 eV
Electronic Energy  :       -434.79336629055439 Eh          -11831.32899 eV
One Electron Energy:       -710.40582286115091 Eh          -19331.12522 eV
Two Electron Energy:        275.61245657059652 Eh            7499.79623 eV

Virial components:
Potential Energy   :       -465.50543912940475 Eh          -12667.04698 eV
Kinetic Energy     :        231.38565390820500 Eh            6296.32374 eV
Virial Ratio       :          2.01181633894243

DFT components:
N(Alpha)           :       22.999996399105 electrons
N(Beta)            :       22.999996399105 electrons
N(Total)           :       45.999992798211 electrons
E(X)               :      -27.272644259973 Eh       
E(C)               :       -1.724922307743 Eh       
E(XC)              :      -28.997566567717 Eh       

---------------
SCF CONVERGENCE
---------------

  Last Energy change         ...    2.3435e-09  Tolerance :   1.0000e-08
  Last MAX-Density change    ...    1.8213e-05  Tolerance :   1.0000e-07
  Last RMS-Density change    ...    1.8235e-06  Tolerance :   5.0000e-09
  Last DIIS Error            ...    1.6349e-03  Tolerance :   5.0000e-07
  Last Orbital Gradient      ...    6.4633e-06  Tolerance :   1.0000e-05
  Last Orbital Rotation      ...    9.0742e-06  Tolerance :   1.0000e-05


----------------
ORBITAL ENERGIES
----------------

  NO   OCC          E(Eh)            E(eV) 
   0   2.0000     -10.214879      -277.9610 
   1   2.0000     -10.202135      -277.6142 
   2   2.0000     -10.194404      -277.4038 
   3   2.0000     -10.188879      -277.2535 
   4   2.0000     -10.185721      -277.1676 
   5   2.0000     -10.180076      -277.0140 
   6   2.0000      -0.792484       -21.5646 
   7   2.0000      -0.769269       -20.9329 
   8   2.0000      -0.716245       -19.4900 
   9   2.0000      -0.609512       -16.5857 
  10   2.0000      -0.565481       -15.3875 
  11   2.0000      -0.518028       -14.0963 
  12   2.0000      -0.485970       -13.2239 
  13   2.0000      -0.444994       -12.1089 
  14   2.0000      -0.435036       -11.8379 
  15   2.0000      -0.423472       -11.5233 
  16   2.0000      -0.416466       -11.3326 
  17   2.0000      -0.369616       -10.0578 
  18   2.0000      -0.360249        -9.8029 
  19   2.0000      -0.345548        -9.4028 
  20   2.0000      -0.316395        -8.6096 
  21   2.0000      -0.235076        -6.3967 
  22   2.0000      -0.210274        -5.7219 
  23   0.0000      -0.074854        -2.0369 
  24   0.0000      -0.036145        -0.9836 
  25   0.0000       0.063792         1.7359 
  26   0.0000       0.069970         1.9040 
  27   0.0000       0.078675         2.1409 
  28   0.0000       0.098933         2.6921 
  29   0.0000       0.108987         2.9657 
  30   0.0000       0.114154         3.1063 
  31   0.0000       0.135641         3.6910 
  32   0.0000       0.148864         4.0508 
  33   0.0000       0.154447         4.2027 
*Only the first 10 virtual orbitals were printed.

                    ********************************
                    * MULLIKEN POPULATION ANALYSIS *
                    ********************************

-----------------------
MULLIKEN ATOMIC CHARGES
-----------------------
   0 C :   -0.028774
   1 C :   -0.034994
   2 C :   -0.024767
   3 C :   -0.036063
   4 C :   -0.022557
   5 C :   -0.156557
   6 H :   -0.003822
   7 H :    0.041655
   8 H :    0.021719
   9 H :    0.031922
  10 H :    0.049780
  11 H :    0.057979
  12 H :    0.036839
  13 H :    0.021347
  14 H :    0.051623
  15 H :   -0.005331
Sum of atomic charges:   -0.0000000

--------------------------------
MULLIKEN REDUCED ORBITAL CHARGES
--------------------------------
  0 C s       :     3.109234  s :     3.109234
      pz      :     0.970953  p :     2.893325
      px      :     0.983676
      py      :     0.938696
      dz2     :     0.008314  d :     0.026215
      dxz     :     0.003518
      dyz     :     0.007163
      dx2y2   :     0.004328
      dxy     :     0.002892

  1 C s       :     3.134644  s :     3.134644
      pz      :     0.931251  p :     2.864843
      px      :     0.977354
      py      :     0.956238
      dz2     :     0.008855  d :     0.035506
      dxz     :     0.003541
      dyz     :     0.010207
      dx2y2   :     0.006421
      dxy     :     0.006482

  2 C s       :     3.125537  s :     3.125537
      pz      :     0.956491  p :     2.864203
      px      :     0.962576
      py      :     0.945136
      dz2     :     0.006391  d :     0.035027
      dxz     :     0.005075
      dyz     :     0.008867
      dx2y2   :     0.007560
      dxy     :     0.007134

  3 C s       :     3.125489  s :     3.125489
      pz      :     0.965664  p :     2.884368
      px      :     0.972729
      py      :     0.945975
      dz2     :     0.005920  d :     0.026206
      dxz     :     0.004813
      dyz     :     0.005425
      dx2y2   :     0.005465
      dxy     :     0.004584

  4 C s       :     3.003527  s :     3.003527
      pz      :     1.013643  p :     2.987581
      px      :     0.952449
      py      :     1.021489
      dz2     :     0.006303  d :     0.031448
      dxz     :     0.007705
      dyz     :     0.006734
      dx2y2   :     0.004649
      dxy     :     0.006057

  5 C s       :     3.703433  s :     3.703433
      pz      :     1.257257  p :     2.424146
      px      :     0.495035
      py      :     0.671854
      dz2     :     0.004950  d :     0.028978
      dxz     :     0.004281
      dyz     :     0.011153
      dx2y2   :     0.003893
      dxy     :     0.004702

  6 H s       :     0.981335  s :     0.981335
      pz      :     0.012575  p :     0.022487
      px      :     0.004671
      py      :     0.005240

  7 H s       :     0.934605  s :     0.934605
      pz      :     0.013384  p :     0.023740
      px      :     0.005035
      py      :     0.005320

  8 H s       :     0.954649  s :     0.954649
      pz      :     0.004521  p :     0.023632
      px      :     0.005264
      py      :     0.013847

  9 H s       :     0.945760  s :     0.945760
      pz      :     0.011423  p :     0.022318
      px      :     0.006942
      py      :     0.003953

 10 H s       :     0.928029  s :     0.928029
      pz      :     0.008568  p :     0.022191
      px      :     0.006366
      py      :     0.007257

 11 H s       :     0.914199  s :     0.914199
      pz      :     0.006513  p :     0.027822
      px      :     0.011880
      py      :     0.009429

 12 H s       :     0.939734  s :     0.939734
      pz      :     0.011439  p :     0.023427
      px      :     0.003941
      py      :     0.008047

 13 H s       :     0.955214  s :     0.955214
      pz      :     0.004328  p :     0.023439
      px      :     0.005314
      py      :     0.013797

 14 H s       :     0.924079  s :     0.924079
      pz      :     0.008929  p :     0.024297
      px      :     0.010214
      py      :     0.005154

 15 H s       :     0.982787  s :     0.982787
      pz      :     0.008763  p :     0.022544
      px      :     0.008667
      py      :     0.005114



                     *******************************
                     * LOEWDIN POPULATION ANALYSIS *
                     *******************************

----------------------
LOEWDIN ATOMIC CHARGES
----------------------
   0 C :   -0.050324
   1 C :   -0.036435
   2 C :   -0.044779
   3 C :   -0.030684
   4 C :   -0.101090
   5 C :   -0.054382
   6 H :    0.026117
   7 H :    0.027961
   8 H :    0.023030
   9 H :    0.021552
  10 H :    0.031649
  11 H :    0.104485
  12 H :    0.004180
  13 H :    0.024810
  14 H :    0.028360
  15 H :    0.025548

-------------------------------
LOEWDIN REDUCED ORBITAL CHARGES
-------------------------------
  0 C s       :     2.890325  s :     2.890325
      pz      :     1.063742  p :     3.092216
      px      :     0.985725
      py      :     1.042750
      dz2     :     0.021993  d :     0.067782
      dxz     :     0.008377
      dyz     :     0.019383
      dx2y2   :     0.010892
      dxy     :     0.007137

  1 C s       :     2.875342  s :     2.875342
      pz      :     1.055050  p :     3.070463
      px      :     0.969256
      py      :     1.046157
      dz2     :     0.023689  d :     0.090630
      dxz     :     0.008509
      dyz     :     0.027416
      dx2y2   :     0.015934
      dxy     :     0.015082

  2 C s       :     2.872702  s :     2.872702
      pz      :     1.035385  p :     3.081866
      px      :     1.004952
      py      :     1.041530
      dz2     :     0.015723  d :     0.090211
      dxz     :     0.013216
      dyz     :     0.023721
      dx2y2   :     0.020121
      dxy     :     0.017431

  3 C s       :     2.890579  s :     2.890579
      pz      :     1.025515  p :     3.072501
      px      :     1.002385
      py      :     1.044601
      dz2     :     0.013694  d :     0.067604
      dxz     :     0.012506
      dyz     :     0.015313
      dx2y2   :     0.014964
      dxy     :     0.011127

  4 C s       :     2.859373  s :     2.859373
      pz      :     1.067440  p :     3.161544
      px      :     1.019813
      py      :     1.074292
      dz2     :     0.014045  d :     0.080172
      dxz     :     0.021866
      dyz     :     0.017527
      dx2y2   :     0.010146
      dxy     :     0.016587

  5 C s       :     3.283997  s :     3.283997
      pz      :     1.397555  p :     2.714419
      px      :     0.552269
      py      :     0.764595
      dz2     :     0.007395  d :     0.055966
      dxz     :     0.007447
      dyz     :     0.022137
      dx2y2   :     0.007628
      dxy     :     0.011358

  6 H s       :     0.908636  s :     0.908636
      pz      :     0.035157  p :     0.065247
      px      :     0.014138
      py      :     0.015952

  7 H s       :     0.902730  s :     0.902730
      pz      :     0.038851  p :     0.069308
      px      :     0.015174
      py      :     0.015283

  8 H s       :     0.909111  s :     0.909111
      pz      :     0.012916  p :     0.067859
      px      :     0.015449
      py      :     0.039494

  9 H s       :     0.912891  s :     0.912891
      pz      :     0.033944  p :     0.065557
      px      :     0.018607
      py      :     0.013006

 10 H s       :     0.904623  s :     0.904623
      pz      :     0.024717  p :     0.063728
      px      :     0.016095
      py      :     0.022917

 11 H s       :     0.827328  s :     0.827328
      pz      :     0.013560  p :     0.068186
      px      :     0.032261
      py      :     0.022365

 12 H s       :     0.925964  s :     0.925964
      pz      :     0.039268  p :     0.069856
      px      :     0.009182
      py      :     0.021406

 13 H s       :     0.907863  s :     0.907863
      pz      :     0.012231  p :     0.067328
      px      :     0.015762
      py      :     0.039335

 14 H s       :     0.899976  s :     0.899976
      pz      :     0.026781  p :     0.071664
      px      :     0.029841
      py      :     0.015042

 15 H s       :     0.909063  s :     0.909063
      pz      :     0.024965  p :     0.065389
      px      :     0.024850
      py      :     0.015575



                      *****************************
                      * MAYER POPULATION ANALYSIS *
                      *****************************

  NA   - Mulliken gross atomic population
  ZA   - Total nuclear charge
  QA   - Mulliken gross atomic charge
  VA   - Mayer's total valence
  BVA  - Mayer's bonded valence
  FA   - Mayer's free valence

  ATOM       NA         ZA         QA         VA         BVA        FA
  0 C      6.0288     6.0000    -0.0288     3.9390     3.9390    -0.0000
  1 C      6.0350     6.0000    -0.0350     4.0382     4.0382    -0.0000
  2 C      6.0248     6.0000    -0.0248     4.0268     4.0268    -0.0000
  3 C      6.0361     6.0000    -0.0361     3.9323     3.9323    -0.0000
  4 C      6.0226     6.0000    -0.0226     3.8725     3.8725     0.0000
  5 C      6.1566     6.0000    -0.1566     2.3392     2.3392    -0.0000
  6 H      1.0038     1.0000    -0.0038     0.9758     0.9758    -0.0000
  7 H      0.9583     1.0000     0.0417     0.9921     0.9921    -0.0000
  8 H      0.9783     1.0000     0.0217     0.9732     0.9732    -0.0000
  9 H      0.9681     1.0000     0.0319     0.9731     0.9731     0.0000
 10 H      0.9502     1.0000     0.0498     0.9723     0.9723    -0.0000
 11 H      0.9420     1.0000     0.0580     1.0540     1.0540     0.0000
 12 H      0.9632     1.0000     0.0368     0.9432     0.9432    -0.0000
 13 H      0.9787     1.0000     0.0213     0.9747     0.9747    -0.0000
 14 H      0.9484     1.0000     0.0516     1.0153     1.0153    -0.0000
 15 H      1.0053     1.0000    -0.0053     0.9761     0.9761    -0.0000

  Mayer bond orders larger than 0.100000
B(  0-C ,  1-C ) :   1.9319 B(  0-C ,  3-C ) :   0.1014 B(  0-C ,  7-H ) :   0.9470 
B(  0-C ,  8-H ) :   0.9421 B(  1-C ,  2-C ) :   1.0924 B(  1-C ,  6-H ) :   0.9576 
B(  2-C ,  3-C ) :   1.9444 B(  2-C , 15-H ) :   0.9573 B(  3-C , 13-H ) :   0.9480 
B(  3-C , 14-H ) :   0.9387 B(  4-C ,  5-C ) :   1.1441 B(  4-C ,  9-H ) :   0.9272 
B(  4-C , 10-H ) :   0.9569 B(  4-C , 11-H ) :   0.8364 B(  5-C , 11-H ) :   0.1533 
B(  5-C , 12-H ) :   0.9106 

-------
TIMINGS
-------

Total SCF time: 0 days 0 hours 0 min 8 sec 

Total time                  ....       8.465 sec
Sum of individual times     ....       7.963 sec  ( 94.1%)

SCF preparation             ....       0.195 sec  (  2.3%)
Fock matrix formation       ....       7.479 sec  ( 88.3%)
  Startup                   ....       0.005 sec  (  0.1% of F)
  Split-RI-J                ....       0.652 sec  (  8.7% of F)
  Chain of spheres X        ....       5.658 sec  ( 75.6% of F)
  XC integration            ....       1.463 sec  ( 19.6% of F)
    XC Preparation          ....       0.000 sec  (  0.0% of XC)
    Basis function eval.    ....       0.458 sec  ( 31.3% of XC)
    Density eval.           ....       0.235 sec  ( 16.0% of XC)
    XC-Functional eval.     ....       0.093 sec  (  6.3% of XC)
    XC-Potential eval.      ....       0.250 sec  ( 17.1% of XC)
Diagonalization             ....       0.000 sec  (  0.0%)
Density matrix formation    ....       0.047 sec  (  0.6%)
Total Energy calculation    ....       0.020 sec  (  0.2%)
Population analysis         ....       0.020 sec  (  0.2%)
Orbital Transformation      ....       0.019 sec  (  0.2%)
Orbital Orthonormalization  ....       0.000 sec  (  0.0%)
DIIS solution               ....       0.094 sec  (  1.1%)
SOSCF solution              ....       0.090 sec  (  1.1%)
Finished LeanSCF after   8.5 sec

Maximum memory used throughout the entire LEANSCF-calculation: 11.8 MB


-------------------------------------------------------------------------------
                          DFT DISPERSION CORRECTION                            
                                                                               
                              DFTD3 V3.1  Rev 1                                
                          USING Becke-Johnson damping                          
-------------------------------------------------------------------------------
The B3LYP functional is recognized
Active option DFTDOPT                   ...         4   

molecular C6(AA) [au] = 2255.384650 


            DFT-D V3
 parameters
 s6 scaling factor         :     1.0000 
 a1 scaling factor         :     0.3981 
 s8 scaling factor         :     1.9889 
 a2 scaling factor         :     4.4211 
 ad hoc parameters k1-k3   :    16.0000     1.3333    -4.0000 

 Edisp/kcal,au: -12.320843475630  -0.019634511781 
 E6   /kcal   :  -6.039170517 
 E8   /kcal   :  -6.281672958 
 % E8         :  50.984114609 

-------------------------   ----------------
Dispersion correction           -0.019634512
-------------------------   ----------------


-------------------------   --------------------
FINAL SINGLE POINT ENERGY      -234.139419732981
-------------------------   --------------------



           ************************************************************
           *        Program running with 6 parallel MPI-processes     *
           *              working on a common directory               *
           ************************************************************
------------------------------------------------------------------------------
                         ORCA SCF GRADIENT CALCULATION
------------------------------------------------------------------------------

Nuc. rep. gradient        (SHARK) ... done (  0.0 sec)
HCore & Overlap gradient  (SHARK) ... done (  0.0 sec)
Split-RIJ-J gradient      (SHARK) ... done (  0.2 sec)
done (  3.4 sec)
XC gradient                       ... done (  0.8 sec)
Dispersion correction             ... done (  0.1 sec)

-------------------
DISPERSION GRADIENT
-------------------

   1   C   :   -0.000444713   -0.000642101    0.000067961
   2   C   :   -0.000490952   -0.000242907   -0.000257421
   3   C   :   -0.000433630    0.000243233   -0.000180895
   4   C   :   -0.000373736    0.000603029    0.000115185
   5   C   :    0.000481905   -0.000050191   -0.000027118
   6   C   :    0.000936394    0.000147870    0.000139965
   7   H   :   -0.000102042   -0.000119198   -0.000178675
   8   H   :   -0.000149375   -0.000263321    0.000221529
   9   H   :   -0.000096538   -0.000255171    0.000030077
  10   H   :    0.000115053   -0.000031037   -0.000044920
  11   H   :    0.000130238   -0.000064095    0.000027027
  12   H   :    0.000344978   -0.000074321   -0.000016483
  13   H   :    0.000351759    0.000157118   -0.000027765
  14   H   :   -0.000055156    0.000201502    0.000059737
  15   H   :   -0.000078226    0.000277271    0.000191425
  16   H   :   -0.000135960    0.000112319   -0.000119629

Difference to translation invariance:
           :   -0.0000000000    0.0000000000   -0.0000000000

Difference to rotation invariance:
           :   -0.0000000000    0.0000000000    0.0000000000

Norm of the Dispersion gradient    ...    0.0019308453
RMS gradient                       ...    0.0002786935
MAX gradient                       ...    0.0009363939

------------------
CARTESIAN GRADIENT
------------------

   1   C   :    0.000117454   -0.000090614   -0.000009828
   2   C   :    0.000012209    0.000078550   -0.000009356
   3   C   :   -0.000023919   -0.000066086    0.000091660
   4   C   :   -0.000038508    0.000121807    0.000021561
   5   C   :   -0.000127493   -0.000018756   -0.000096479
   6   C   :    0.000119593    0.000089687    0.000069962
   7   H   :   -0.000006136    0.000012810   -0.000014519
   8   H   :    0.000015724   -0.000052884   -0.000026352
   9   H   :    0.000006685    0.000042578    0.000046113
  10   H   :   -0.000017970    0.000008495   -0.000001907
  11   H   :   -0.000036933   -0.000050898    0.000054447
  12   H   :   -0.000013315    0.000027107   -0.000014576
  13   H   :   -0.000049053   -0.000062650    0.000028246
  14   H   :    0.000011833   -0.000025662   -0.000020296
  15   H   :    0.000031247   -0.000004104   -0.000036453
  16   H   :   -0.000001417   -0.000009381   -0.000082223

Difference to translation invariance:
           :    0.0000000000   -0.0000000000    0.0000000000

Difference to rotation invariance:
           :   -0.0000190581    0.0000023063   -0.0000843527

Norm of the Cartesian gradient     ...    0.0003819422
RMS gradient                       ...    0.0000551286
MAX gradient                       ...    0.0001274929

-------
TIMINGS
-------

Total SCF gradient time     ....        4.560 sec

Densities                   ....       0.001 sec  (  0.0%)
One electron gradient       ....       0.043 sec  (  0.9%)
RI-J Coulomb gradient       ....       0.240 sec  (  5.3%)
COSX gradient               ....       3.389 sec  ( 74.3%)
XC gradient                 ....       0.832 sec  ( 18.2%)

Maximum memory used throughout the entire SCFGRAD-calculation: 28.4 MB


           ************************************************************
           *        Program running with 6 parallel MPI-processes     *
           *              working on a common directory               *
           ************************************************************

------------------------------------------------------------------------------
                              ORCA PROPERTY CALCULATIONS
------------------------------------------------------------------------------

GBWName                                 ... orca.gbw
Number of atoms                         ...     16
Number of basis functions               ...    134
Max core memory                         ...   4096 MB

Electric properties:
Dipole moment                           ... YES
Quadrupole moment                       ...  NO
Static polarizability (Dipole/Dipole)   ...  NO
Static polarizability (Dipole/Quad.)    ...  NO
Static polarizability (Quad./Quad.)     ...  NO
Static polarizability (Velocity)        ...  NO
Static hyperpolarizability              ...  NO

Atomic electric properties:
Dipole moment                           ...  NO
Quadrupole moment                       ...  NO
Static polarizability                   ...  NO

Choice of electric origin               ... Center of mass
Position of electric origin             ...    -0.329338     0.163698     0.079398

General magnetic properties:
Magnetizability                         ...  NO

EPR properties:
g-Tensor (aka g-matrix)                 ...  NO
Zero-Field splitting spin-orbit         ...  NO
Zero-field splitting spin-spin          ...  NO
Hyperfine couplings                     ...  NO (   0 nuclei)
Quadrupole couplings                    ...  NO (   0 nuclei)
Contact density                         ...  NO (   0 nuclei)

NMR properties:
Chemical shifts                         ...  NO (   0 nuclei)
Spin-rotation constants                 ...  NO (   0 nuclei)
Spin-spin couplings                     ...  NO (   0 nuclei,    0 pairs)

Choice of magnetic origin               ... GIAO
Position of magnetic origin             ...     0.000000     0.000000     0.000000

Properties with geometric perturbations:
SCF Hessian                             ...  NO
IR spectrum                             ...  NO
VCD spectrum                            ...  NO
X-ray spectroscopy properties:
SCF XES/XAS/RIXS spectra                ...  NO

SCF SOC stabilization energy            ...  NO
Diagonal Born-Oppenheimer correction    ...  NO

-------------
DIPOLE MOMENT
-------------

Method             : SCF
Type of density    : Electron Density
Multiplicity       :   1
Irrep              :   0
Energy             :  -234.1197852211997201 Eh
Basis              : AO
                                X                 Y                 Z
Electronic contribution:     -2.623257325       1.087684129      -0.057193685
Nuclear contribution   :      2.855722119      -1.419436319      -0.688464771
                        -----------------------------------------
Total Dipole Moment    :      0.232464794      -0.331752190      -0.745658457
                        -----------------------------------------
Magnitude (a.u.)       :      0.848590555
Magnitude (Debye)      :      2.156945775



--------------------
Rotational spectrum 
--------------------
 
Rotational constants in cm-1:             0.149873             0.057365             0.045816 
Rotational constants in MHz :          4493.077625          1719.769948          1373.516578 

Dipole components along the rotational axes: 
x,y,z [a.u.] :    -0.217933     0.410254     0.710143 
x,y,z [Debye]:    -0.553941     1.042784     1.805039 

 

Dipole moment calculation done in   0.0 sec 

Maximum memory used throughout the entire PROP-calculation: 6.6 MB

--------------------------------
SUGGESTED CITATIONS FOR THIS RUN
--------------------------------

Below you find a list of papers that are relevant to this ORCA run
We neither can nor want to force you to cite these papers, but we appreciate if you do
You receive ORCA, which is the product of decades of hard work by many enthusiastic individuals, for free
The only thing we kindly ask in return is that you cite our papers,
We deeply appreciate it, if you show your appreciation for ORCA by not just citing the generic ORCA reference.

Please note that relegating all ORCA citations to the supporting information does *not* help us.
SI sections are not indexed - citations you put there will not count into any citation statistics
But we need these citations in order to attract the funding resources that allow us to do what we are doing

Therefore, if you are a happy ORCA user, please consider citing a few of the papers listed below in the main body of your paper

In addition to the list printed below, the program has created the file orca.bibtex that contains the list in bibtex format
You can import this file easily into all common literature databanks and citation aid programs


List of essential papers. We consider these as the minimum necessary citations

  1. Neese, F.
     Software update: the ORCA program system, version 6.0
     WIRES Comput. Molec. Sci. 2025 15(1), e70019
     doi.org/10.1002/wcms.7019

List of papers to cite with high priority. The work reported in these papers was absolutely
necessary for this run to complete.
Our perspective: the developers of density functionals and basis sets usually get cited in chemistry papers
Good! But without the algorithms to do something with them, the functionals or basis sets would not do anything.
Hence, in our opinion, the algorithm design and method developments papers are equally worthy of getting cited

  1. Neese, F.
     An improvement of the resolution of the identity approximation for the formation of the Coulomb matrix
     J. Comp. Chem. 2003 24(14), 1740-1747
     doi.org/10.1002/jcc.10318
  2. Neese, F.; Wennmohs, F.; Hansen, A.; Becker, U.
     Efficient, approximate and parallel Hartree-Fock and hybrid DFT calculations. A 'chain-of-spheres' algorithm for the Hartree-Fock exchange
     Chem. Phys. 2009 356(1-3), 98-109
     doi.org/10.1016/j.chemphys.2008.10.036
  3. Grimme, S.; Antony, J.; Ehrlich, S.; Krieg, H.
     A consistent and accurate ab initio parametrization of density functional dispersion correction (DFT-D) for the 94 elements H-Pu
     J. Chem. Phys. 2010 132 , 154104
     doi.org/10.1063/1.3382344
  4. Grimme, S.; Ehrlich, S.; Goerigk, L.
     Effect of the damping function in dispersion corrected density functional theory
     J. Comput. Chem. 2011 32(7), 1456-1465
     doi.org/10.1002/jcc.21759
  5. Helmich-Paris, B.; de Souza, B.; Neese, F.; Izsák, R.
     An improved chain of spheres for exchange algorithm
     J. Chem. Phys. 2021 155(10), 104109
     doi.org/10.1063/5.0058766
  6. Neese, F.
     The SHARK Integral Generation and Digestion System
     J. Comp. Chem. 2022 44(3), 381
     doi.org/10.1002/jcc.26942

List of suggested additional citations. These are papers that are important in the 'surrounding' of 
of this run, or papers that preceded the highly important papers. If you like your results we are grateful for a citation.

  1. Izsak, R.; Neese, F.
     An overlap fitted chain of spheres exchange method
     J. Chem. Phys. 2011 135 , 144105
     doi.org/10.1063/1.3646921
  2. Izsak, R.; Hansen, A.; Neese, F.
     The resolution of identity and chain of spheres approximations for the LPNO-CCSD singles Fock term
     Molec. Phys. 2012 110 , 2413-2417
     doi.org/10.1080/00268976.2012.687466
  3. Neese, F.
     The ORCA program system
     WIRES Comput. Molec. Sci. 2012 2(1), 73-78
     doi.org/10.1002/wcms.81
  4. Izsak, R.; Neese, F.; Klopper, W.
     Robust fitting techniques in the chain of spheres approximation to the Fock exchange: The role of the complementary space
     J. Chem. Phys. 2013 139 , 
     doi.org/10.1063/1.4819264
  5. Neese, F.
     Software update: the ORCA program system, version 4.0
     WIRES Comput. Molec. Sci. 2018 8(1), 1-6
     doi.org/10.1002/wcms.1327
  6. Neese, F.; Wennmohs, F.; Becker, U.; Riplinger, C.
     The ORCA quantum chemistry program package
     J. Chem. Phys. 2020 152(22), 224108
     doi.org/10.1063/5.0004608
  7. Neese, F.
     Software update: The ORCA program system—Version 5.0
     WIRES Comput. Molec. Sci. 2022 12(1), e1606
     doi.org/10.1002/wcms.1606

List of optional additional citations

  1. Neese, F.
     Approximate second-order SCF convergence for spin unrestricted wavefunctions
     Chem. Phys. Lett. 2000 325(1-3), 93-98
     doi.org/10.1016/s0009-2614(00)00662-x

Timings for individual modules:

Sum of individual times          ...       16.603 sec (=   0.277 min)
Startup calculation              ...        1.545 sec (=   0.026 min)   9.3 %
SCF iterations                   ...        9.537 sec (=   0.159 min)  57.4 %
Property calculations            ...        0.492 sec (=   0.008 min)   3.0 %
SCF Gradient evaluation          ...        5.029 sec (=   0.084 min)  30.3 %
                             ****ORCA TERMINATED NORMALLY****
TOTAL RUN TIME: 0 days 0 hours 0 minutes 17 seconds 175 msec
