
                                 *****************
                                 * O   R   C   A *
                                 *****************

                                            #,                                       
                                            ###                                      
                                            ####                                     
                                            #####                                    
                                            ######                                   
                                           ########,                                 
                                     ,,################,,,,,                         
                               ,,#################################,,                 
                          ,,##########################################,,             
                       ,#########################################, ''#####,          
                    ,#############################################,,   '####,        
                  ,##################################################,,,,####,       
                ,###########''''           ''''###############################       
              ,#####''   ,,,,##########,,,,          '''####'''          '####       
            ,##' ,,,,###########################,,,                        '##       
           ' ,,###''''                  '''############,,,                           
         ,,##''                                '''############,,,,        ,,,,,,###''
      ,#''                                            '''#######################'''  
     '                                                          ''''####''''         
             ,#######,   #######,   ,#######,      ##                                
            ,#'     '#,  ##    ##  ,#'     '#,    #''#        ,####,    ,#,          
            ##       ##  ##   ,#'  ##            #'  '#       #'       ,# #          
            ##       ##  #######   ##           ,######,      #####,      #          
            '#,     ,#'  ##    ##  '#,     ,#' ,#      #,     #,   #      #          
             '#######'   ##     ##  '#######'  #'      '#     '####' #    #          



                #########################################################
                #                        -***-                          #
                #          Department of theory and spectroscopy        #
                #                                                       #
                #                      Frank Neese                      #
                #                                                       #
                #     Directorship, Architecture, Infrastructure        #
                #                    SHARK, DRIVERS                     #
                #        Core code/Algorithms in most modules           #
                #                                                       #
                #        Max Planck Institute fuer Kohlenforschung      #
                #                Kaiser Wilhelm Platz 1                 #
                #                 D-45470 Muelheim/Ruhr                 #
                #                      Germany                          #
                #                                                       #
                #                  All rights reserved                  #
                #                        -***-                          #
                #########################################################


                         Program Version 6.1.0  -  RELEASE   -
                                (GIT: $679e74b$)
                          ($2025-06-10 18:02:51 +0200$)


 With contributions from (in alphabetic order):
[Max-Planck-Institut fuer Kohlenforschung]                               
  Daniel Aravena         : Magnetic Suceptibility                        
  Michael Atanasov       : Ab Initio Ligand Field Theory (pilot matlab implementation)
  Alexander A. Auer      : GIAO ZORA, VPT2 properties, NMR spectrum      
  Ute Becker             : All parallelization in ORCA, NUMFREQ, NUMCALC 
  Giovanni Bistoni       : ED, misc. LED, open-shell LED, HFLD           
  Dmytro Bykov           : pre 5.0 version of the SCF Hessian            
  Marcos Casanova-Páez   : Triplet and SCS-CIS(D). UHF-(DLPNO)-IP/EA/STEOM-CCSD. UHF-CVS-IP/STEOM-CCSD   
  Vijay G. Chilkuri      : MRCI spin determinant printing, contributions to CSF-ICE 
  Pauline Colinet        : FMM embedding                                 
  Dipayan Datta          : RHF DLPNO-CCSD density                        
  Achintya Kumar Dutta   : EOM-CC, STEOM-CC                              
  Nicolas Foglia         : Exact transition moments, OPA infrastructure, MCD improvements    
  Dmitry Ganyushin       : Spin-Orbit,Spin-Spin,Magnetic field MRCI      
  Miquel Garcia-Rates    : C-PCM and meta-GGA Hessian, CCSD/C-PCM, Gaussian charge scheme 
  Tiago L. C. Gouveia    : GS-ROHF, GS-ROCIS                             
  Yang Guo               : DLPNO-NEVPT2, F12-NEVPT2, CIM, IAO-localization        
  Andreas Hansen         : Spin unrestricted coupled pair/coupled cluster methods 
  Ingolf Harden          : AUTO-CI MPn and infrastructure                
  Benjamin Helmich-Paris : MC-RPA, TRAH-(SCF,CASSCF), AVAS, COSX integrals, SCF dyn. polar., MC-PDFT, srDFT 
  Lee Huntington         : MR-EOM, pCC                                   
  Robert Izsak           : Overlap fitted RIJCOSX, COSX-SCS-MP3, EOM     
  Riya Kayal             : Wick's Theorem for AUTO-CI, AUTO-CI UHF-CCSDT 
  Emily Kempfer          : AUTO-CI RHF CISDT and CCSDT, approximate NEVPT4
  Christian Kollmar      : KDIIS, OOCD, Brueckner-CCSD(T), CCSD density, CASPT2, CASPT2-K, improved NEVPT2 
  Axel Koslowski         : Symmetry handling                             
  Simone Kossmann        : meta-GGA functionals, TD-DFT gradient, OOMP2, (MP2 Hessian; deprecated post 5.0) 
  Lucas Lang             : DCDCAS, Hyperfine gauge corrections, ICE-SOC+SSC
  Marvin Lechner         : AUTO-CI (C++ implementation), FIC-MRCC        
  Spencer Leger          : CASSCF response                               
  Dagmar Lenk            : GEPOL surface, SMD, ORCA-2-JSON               
  Dimitrios Liakos       : Extrapolation schemes; Compound Job, Property file
  Dimitrios Manganas     : Further ROCIS development; embedding schemes. LFT, Crystal Embedding 
  Dimitrios Pantazis     : SARC Basis sets                               
  Anastasios Papadopoulos: AUTO-CI, single reference methods and gradients 
  Taras Petrenko         : pre 6.0 DFT Hessian and TD-DFT gradient,  ECA, NRVS 
  Petra Pikulova         : Analytic Raman intensities                    
  Peter Pinski           : DLPNO-MP2, DLPNO-MP2 Gradient                 
  Shashank Vittal Rao    : ES-AILFT, MagRelax                            
  Christoph Reimann      : Effective Core Potentials                     
  Marius Retegan         : Local ZFS, SOC                                
  Christoph Riplinger    : Optimizer, TS searches, QM/MM, DLPNO-CCSD(T), (RO)-DLPNO pert. Triples 
  Michael Roemelt        : Original ROCIS implementation, recursive CI coupling coefficients
  Masaaki Saitow         : Open-shell DLPNO-CCSD energy and density      
  Barbara Sandhoefer     : DKH picture change effects                    
  Yorick L. A. Schmerwitz: GMF and freeze-and-release deltaSCF, NEB S-IDPP initial path                    
  Kantharuban Sivalingam : CASSCF convergence/infrastructure, NEVPT2, NEVPT3, NEVPT4(SD), FIC-MRCI and CEPA variants
  Bernardo de Souza      : ESD, SOC TD-DFT                               
  Georgi L. Stoychev     : AutoAux, RI-MP2 NMR, DLPNO-MP2 response, X2C  
  Van Anh Tran           : RI-MP2 g-tensors                              
  Willem Van den Heuvel  : Paramagnetic NMR                              
  Zikuan Wang            : NOTCH, Electric field optimization            
  Frank Wennmohs         : Technical directorship and infrastructure     
  Hang Xu                : AUTO-CI-Response properties                   
                                                                         
[FACCTs GmbH]                                                            
  Markus Bursch, Nicolas Foglia, Miquel Garcia-Rates, Ingolf Harden, Hagen Neugebauer, Anastasios Papadopoulos, 
  Christoph Riplinger, Bernardo de Souza, Georgi L. Stoychev                                                    
                                                                 
  APM, various basis sets, CI-OPT, improved COSX, DLPNO-Multilevel,           
  DOCKER, DRACO, updates on ESD, Fragmentator, GOAT, IRC, LR-CPCM, L-BFGS, MBIS, meta-GGA TD-DFT gradient, ML-optimized integration grids, 
  MM, NACMEs, nearIR, NEB, NEB-TS, NL-DFT gradient (VV10), 2- and 3-layer-ONIOM, interface openCOSMO-RS, QMMM,   
  Crystal-QMMM, RESP, rigid body optimization, SF, symmetry and pop. for TD-DFT, various functionals, SOLVATOR                                   
                                                                         
[Other institutions]                                                     
  V. Asgeirsson          : NEB                                           
  Christoph Bannwarth    : sTDA-DFT, sTD-DFT, PBEh-3c, B97-3c, D3        
  Giovanni Bistoni       : ETS/NOCV, ADLD/ADEX, COVALED                  
  Martin Brehm           : Molecular dynamics                            
  Ronald Cardenas        : ETS/NOCV                                      
  Martina Colucci        : COVALED                                       
  Sebastian Ehlert       : rSCAN, r2SCAN, r2SCAN-3c, D4, dhf basis sets  
  Marvin Friede          : D4 for Fr, Ra, Ac-Lr                          
  Lars Goerigk           : TD-DFT with DH, B97 family of functionals     
  Stefan Grimme          : VdW corrections, initial TS optimization, DFT functionals, gCP, sTDA/sTD-DF 
  Waldemar Hujo          : DFT-NL                                        
  H. Jonsson             : NEB                                           
  Holger Kruse           : gCP                                           
  Marcel Mueller         : wB97X-3c, vDZP basis set                      
  Hagen Neugebauer       : wr2SCAN, Native XTB                           
  Gianluca Regni         : ADLD/ADEX                                     
  Tobias Risthaus        : pre 6.0 range-separated hybrid DFT and stability analysis
  Lukas Wittmann         : regularized MP2, r2SCAN double-hybrids, wr2SCAN        
                                                                         
We gratefully acknowledge several colleagues who have allowed us to      
interface, adapt or use parts of their codes:                            
  Ed Valeev, F. Pavosevic, A. Kumar             : LibInt (2-el integral package), F12 methods 
  Garnet Chan, S. Sharma, J. Yang, R. Olivares  : DMRG                   
  Ulf Ekstrom                                   : XCFun DFT Library      
  Mihaly Kallay                                 : mrcc  (arbitrary order and MRCC methods)
  Frank Weinhold                                : gennbo (NPA and NBO analysis)           
  Simon Mueller                                 : openCOSMO-RS                            
  Christopher J. Cramer and Donald G. Truhlar   : smd solvation model                     
  S Lehtola, MJT Oliveira, MAL Marques          : LibXC Library                           
  Liviu Ungur et al                             : ANISO software                          


 Your calculation uses the libint2 library for the computation of 2-el integrals
 For citations please refer to: http://libint.valeyev.net

 Your ORCA version has been built with support for libXC version: 7.0.0
 For citations please refer to: https://libxc.gitlab.io

 This ORCA versions uses:
   CBLAS   interface :  Fast vector & matrix operations
   LAPACKE interface :  Fast linear algebra routines
   SCALAPACK package :  Parallel linear algebra routines
   Shared memory     :  Shared parallel matrices
   BLAS/LAPACK       :  OpenBLAS 0.3.29  USE64BITINT DYNAMIC_ARCH NO_AFFINITY Zen SINGLE_THREADED
        Core in use  :  Zen
   Copyright (c) 2011-2014, The OpenBLAS Project


  ***********************************
  * Starting time: Wed Sep 10 13:35:27 2025
  * Host name:     wyk-Server
  * Process ID:    2290864
  * Working dir.:  /home/wyk/Documents/code/openQDC/MGMR/singlepointcalc/61/react
  ***********************************

Your calculation utilizes the atom-pairwise dispersion correction
with the Becke-Johnson damping scheme (D3BJ)


Warning: RI is on but no J-basis has been assigned. Assigning Def2/J (nothing to worry about!)
================================================================================

----- Orbital basis set information -----
Your calculation utilizes the basis: def2-SVP
   F. Weigend and R. Ahlrichs, Phys. Chem. Chem. Phys. 7, 3297 (2005).

----- AuxJ basis set information -----
Your calculation utilizes the auxiliary basis: def2/J
   H-Rn: F. Weigend, Phys. Chem. Chem. Phys. 8, 1057 (2006).
   Fr-Lr: K. Eichkorn, F. Weigend, O. Treutler, R. Ahlrichs; Theor. Chem. Acc. 97, 119 (1997).

================================================================================
                                        WARNINGS
                       Please study these warnings very carefully!
================================================================================


================================================================================
                                       INPUT FILE
================================================================================
NAME = orca.inp
|  1> ! B3LYP def2-SVP d3 EnGrad 
|  2> %pal nprocs 6 end 
|  3> *xyz 0 1 
|  4> P   -0.52105577869669 -0.20585864282991 -0.2296326244461
|  5> H   -0.3839337677661 -0.13871417512049 1.19319993568014
|  6> C   1.24103144016823 0.23904300562023 -0.6476863702378
|  7> C   -0.42942572325115 -2.06469635729116 -0.37900635280115
|  8> H   1.39843445128595 0.09354334521154 -1.72847780212822
|  9> H   1.4004117360854 1.30435203981496 -0.42271894638
| 10> H   1.98127278829752 -0.36323683909155 -0.09763747889976
| 11> H   -0.36057172235677 -2.33159274383519 -1.44575539827669
| 12> H   0.43396343775696 -2.49992347461723 0.14900003490968
| 13> H   -1.35384280297568 -2.51276311143043 0.0174768347453
| 14> H   -1.10214797501308 2.80270717196216 -0.63153779375993
| 15> C   -0.56249335879941 3.51546044882363 0.00042023692891
| 16> C   -0.45592765862787 3.33054181441273 1.31719057673233
| 17> H   -0.11395402248864 4.3818945467241 -0.49693697336158
| 18> H   0.08333481291334 4.03530229942901 1.9587054074248
| 19> H   -0.90597885653195 2.46214667221758 1.8089167138701
| 20> *
| 21> 
| 22>                          ****END OF INPUT****
================================================================================

                     *******************************
                     * Energy+Gradient Calculation *
                     *******************************

---------------------------------
CARTESIAN COORDINATES (ANGSTROEM)
---------------------------------
  P     -0.521056   -0.205859   -0.229633
  H     -0.383934   -0.138714    1.193200
  C      1.241031    0.239043   -0.647686
  C     -0.429426   -2.064696   -0.379006
  H      1.398434    0.093543   -1.728478
  H      1.400412    1.304352   -0.422719
  H      1.981273   -0.363237   -0.097637
  H     -0.360572   -2.331593   -1.445755
  H      0.433963   -2.499923    0.149000
  H     -1.353843   -2.512763    0.017477
  H     -1.102148    2.802707   -0.631538
  C     -0.562493    3.515460    0.000420
  C     -0.455928    3.330542    1.317191
  H     -0.113954    4.381895   -0.496937
  H      0.083335    4.035302    1.958705
  H     -0.905979    2.462147    1.808917

----------------------------
CARTESIAN COORDINATES (A.U.)
----------------------------
  NO LB      ZA    FRAG     MASS         X           Y           Z
   0 P    15.0000    0    30.974   -0.984653   -0.389016   -0.433943
   1 H     1.0000    0     1.008   -0.725530   -0.262132    2.254821
   2 C     6.0000    0    12.011    2.345210    0.451726   -1.223950
   3 C     6.0000    0    12.011   -0.811497   -3.901711   -0.716218
   4 H     1.0000    0     1.008    2.642658    0.176771   -3.266350
   5 H     1.0000    0     1.008    2.646395    2.464868   -0.798823
   6 H     1.0000    0     1.008    3.744063   -0.686418   -0.184508
   7 H     1.0000    0     1.008   -0.681382   -4.406072   -2.732082
   8 H     1.0000    0     1.008    0.820072   -4.724171    0.281569
   9 H     1.0000    0     1.008   -2.558392   -4.748434    0.033026
  10 H     1.0000    0     1.008   -2.082758    5.296349   -1.193433
  11 C     6.0000    0    12.011   -1.062958    6.643257    0.000794
  12 C     6.0000    0    12.011   -0.861578    6.293812    2.489129
  13 H     1.0000    0     1.008   -0.215342    8.280581   -0.939075
  14 H     1.0000    0     1.008    0.157480    7.625616    3.701417
  15 H     1.0000    0     1.008   -1.712052    4.652783    3.418357

--------------------------------
INTERNAL COORDINATES (ANGSTROEM)
--------------------------------
 P      0   0   0     0.000000000000     0.00000000     0.00000000
 H      1   0   0     1.431000810475     0.00000000     0.00000000
 C      1   2   0     1.864847923572    96.95904149     0.00000000
 C      1   2   3     1.867079598327    96.98207596   100.99653386
 H      3   1   2     1.101842084119   108.86695129   171.35281580
 H      3   1   2     1.100407087791   108.78326109   288.71845707
 H      3   1   2     1.101477211607   113.11727905    50.32574761
 H      4   1   2     1.101784044454   108.76563021   188.72389419
 H      4   1   2     1.101659762570   113.16863398   309.53996562
 H      4   1   2     1.101140168852   109.57912936    71.34044610
 H      6   3   1     2.924291114213   110.94620873   332.67023567
 C     11   6   3     1.094812902294    82.56066822   159.24380727
 C     12  11   6     1.333954750954   121.26002379   279.69170282
 H     12  11   6     1.095107198794   117.05337656    99.52909460
 H     13  12  11     1.095003485132   121.89950265   179.84952453
 H     13  12  11     1.094737775756   121.36628854   359.86252439

---------------------------
INTERNAL COORDINATES (A.U.)
---------------------------
 P      0   0   0     0.000000000000     0.00000000     0.00000000
 H      1   0   0     2.704199629218     0.00000000     0.00000000
 C      1   2   0     3.524051856963    96.95904149     0.00000000
 C      1   2   3     3.528269111069    96.98207596   100.99653386
 H      3   1   2     2.082179781814   108.86695129   171.35281580
 H      3   1   2     2.079468031751   108.78326109   288.71845707
 H      3   1   2     2.081490272692   113.11727905    50.32574761
 H      4   1   2     2.082070102741   108.76563021   188.72389419
 H      4   1   2     2.081835244018   113.16863398   309.53996562
 H      4   1   2     2.080853354189   109.57912936    71.34044610
 H      6   3   1     5.526109341722   110.94620873   332.67023567
 C     11   6   3     2.068896553219    82.56066822   159.24380727
 C     12  11   6     2.520809154345   121.26002379   279.69170282
 H     12  11   6     2.069452693006   117.05337656    99.52909460
 H     13  12  11     2.069256702589   121.89950265   179.84952453
 H     13  12  11     2.068754584637   121.36628854   359.86252439

---------------------
BASIS SET INFORMATION
---------------------
There are 3 groups of distinct atoms

 Group   1 Type P   : 10s7p1d contracted to 4s3p1d pattern {5311/511/1}
 Group   2 Type H   : 4s1p contracted to 2s1p pattern {31/1}
 Group   3 Type C   : 7s4p1d contracted to 3s2p1d pattern {511/31/1}

Atom   0P    basis set group =>   1
Atom   1H    basis set group =>   2
Atom   2C    basis set group =>   3
Atom   3C    basis set group =>   3
Atom   4H    basis set group =>   2
Atom   5H    basis set group =>   2
Atom   6H    basis set group =>   2
Atom   7H    basis set group =>   2
Atom   8H    basis set group =>   2
Atom   9H    basis set group =>   2
Atom  10H    basis set group =>   2
Atom  11C    basis set group =>   3
Atom  12C    basis set group =>   3
Atom  13H    basis set group =>   2
Atom  14H    basis set group =>   2
Atom  15H    basis set group =>   2
---------------------------------
AUXILIARY/J BASIS SET INFORMATION
---------------------------------
There are 3 groups of distinct atoms

 Group   1 Type P   : 14s5p5d2f1g contracted to 8s4p3d1f1g pattern {71111111/2111/311/2/1}
 Group   2 Type H   : 5s2p1d contracted to 3s1p1d pattern {311/2/1}
 Group   3 Type C   : 12s5p4d2f1g contracted to 6s4p3d1f1g pattern {711111/2111/211/2/1}

Atom   0P    basis set group =>   1
Atom   1H    basis set group =>   2
Atom   2C    basis set group =>   3
Atom   3C    basis set group =>   3
Atom   4H    basis set group =>   2
Atom   5H    basis set group =>   2
Atom   6H    basis set group =>   2
Atom   7H    basis set group =>   2
Atom   8H    basis set group =>   2
Atom   9H    basis set group =>   2
Atom  10H    basis set group =>   2
Atom  11C    basis set group =>   3
Atom  12C    basis set group =>   3
Atom  13H    basis set group =>   2
Atom  14H    basis set group =>   2
Atom  15H    basis set group =>   2


           ************************************************************
           *        Program running with 6 parallel MPI-processes     *
           *              working on a common directory               *
           ************************************************************
------------------------------------------------------------------------------
                             ORCA STARTUP CALCULATIONS
                           -- RI-GTO INTEGRALS CHOSEN --
------------------------------------------------------------------------------
------------------------------------------------------------------------------
                   ___                                                        
                  /   \      - P O W E R E D   B Y -                         
                 /     \                                                     
                 |  |  |   _    _      __       _____    __    __             
                 |  |  |  | |  | |    /  \     |  _  \  |  |  /  |          
                  \  \/   | |  | |   /    \    | | | |  |  | /  /          
                 / \  \   | |__| |  /  /\  \   | |_| |  |  |/  /          
                |  |  |   |  __  | /  /__\  \  |    /   |      \           
                |  |  |   | |  | | |   __   |  |    \   |  |\   \          
                \     /   | |  | | |  |  |  |  | |\  \  |  | \   \       
                 \___/    |_|  |_| |__|  |__|  |_| \__\ |__|  \__/        
                                                                              
                      - O R C A' S   B I G   F R I E N D -                    
                                      &                                       
                       - I N T E G R A L  F E E D E R -                       
                                                                              
 v1 FN, 2020, v2 2021, v3 2022-2024                                           
------------------------------------------------------------------------------


----------------------
SHARK INTEGRAL PACKAGE
----------------------

Number of atoms                             ...     16
Number of basis functions                   ...    129
Number of shells                            ...     65
Maximum angular momentum                    ...      2
Integral batch strategy                     ... SHARK/LIBINT Hybrid
RI-J (if used) integral strategy            ... SPLIT-RIJ (Revised 2003 algorithm where possible)
Printlevel                                  ...      1
Contraction scheme used                     ... SEGMENTED contraction
Prescreening option                         ... SCHWARTZ
   Thresh                                   ... 2.500e-11
   Tcut                                     ... 2.500e-12
   Tpresel                                  ... 2.500e-12 
Coulomb Range Separation                    ... NOT USED
Exchange Range Separation                   ... NOT USED
Multipole approximations                    ... NOT USED
Finite Nucleus Model                        ... NOT USED
CABS basis                                  ... NOT available
Auxiliary Coulomb fitting basis             ... AVAILABLE
   # of basis functions in Aux-J            ...    368
   # of shells in Aux-J                     ...    132
   Maximum angular momentum in Aux-J        ...      4
Auxiliary J/K fitting basis                 ... NOT available
Auxiliary Correlation fitting basis         ... NOT available
Auxiliary 'external' fitting basis          ... NOT available

Checking pre-screening integrals            ... done (  0.0 sec) Dimension = 65
   => SHARK Basis and OBASIS are compatible. Storing Pre-screening
Shell pair information
Shell pair cut-off parameter TPreSel        ...   2.5e-12
Total number of shell pairs                 ...      2145
Shell pairs after pre-screening             ...      1946
Total number of primitive shell pairs       ...      7489
Primitive shell pairs kept                  ...      5057
          la=0 lb=0:    691 shell pairs
          la=1 lb=0:    758 shell pairs
          la=1 lb=1:    222 shell pairs
          la=2 lb=0:    168 shell pairs
          la=2 lb=1:     94 shell pairs
          la=2 lb=2:     13 shell pairs

Checking whether 4 symmetric matrices of dimension 129 fit in memory
:Max Core in MB      =   4096.00
 MB in use           =      5.76
 MB left             =   4090.24
 MB needed           =      0.26
 Data fit in memory  = YES
Calculating RI/J V-Matrix + Cholesky decomp.... done (  0.0 sec)
Calculating Nuclear repulsion               ... done (  0.0 sec) ENN=    213.638105262211 Eh

Diagonalization of the overlap matrix:
Smallest eigenvalue                        ... 3.914e-03
Time for diagonalization                   ...    0.002 sec
Threshold for overlap eigenvalues          ... 1.000e-07
Number of eigenvalues below threshold      ... 0
Time for construction of square roots      ...    0.001 sec
Total time needed                          ...    0.003 sec

-------------------
DFT GRID GENERATION
-------------------

General Integration Accuracy     IntAcc      ... 4.388
Radial Grid Type                 RadialGrid  ... OptM3 with GC (2021)
Angular Grid (max. ang.)         AngularGrid ... 4 (Lebedev-302)
Angular grid pruning method      GridPruning ... 4 (adaptive)
Weight generation scheme         WeightScheme... mBecke (2022)
Basis function cutoff            BFCut       ... 1.0000e-11
Integration weight cutoff        WCut        ... 1.0000e-14
Partially contracted basis set               ... off
Rotationally invariant grid construction     ... off
Angular grids for H and He will be reduced by one unit

Total number of grid points                  ...    67187
Total number of batches                      ...     1058
Average number of points per batch           ...       63
Average number of grid points per atom       ...     4199

--------------------
COSX GRID GENERATION
--------------------

GRIDX 1
-------
General Integration Accuracy     IntAcc      ... 3.816
Radial Grid Type                 RadialGrid  ... OptM3 with GC (2021)
Angular Grid (max. ang.)         AngularGrid ... 1 (Lebedev-50)
Angular grid pruning method      GridPruning ... 4 (adaptive)
Weight generation scheme         WeightScheme... mBecke (2022)
Basis function cutoff            BFCut       ... 1.0000e-11
Integration weight cutoff        WCut        ... 1.0000e-14
Partially contracted basis set               ... on
Rotationally invariant grid construction     ... off
Angular grids for H and He will be reduced by one unit

Total number of grid points                  ...     9671
Total number of batches                      ...       86
Average number of points per batch           ...      112
Average number of grid points per atom       ...      604
UseSFitting                                  ... on

GRIDX 2
-------
General Integration Accuracy     IntAcc      ... 4.020
Radial Grid Type                 RadialGrid  ... OptM3 with GC (2021)
Angular Grid (max. ang.)         AngularGrid ... 2 (Lebedev-110)
Angular grid pruning method      GridPruning ... 4 (adaptive)
Weight generation scheme         WeightScheme... mBecke (2022)
Basis function cutoff            BFCut       ... 1.0000e-11
Integration weight cutoff        WCut        ... 1.0000e-14
Partially contracted basis set               ... on
Rotationally invariant grid construction     ... off
Angular grids for H and He will be reduced by one unit

Total number of grid points                  ...    17702
Total number of batches                      ...      146
Average number of points per batch           ...      121
Average number of grid points per atom       ...     1106
UseSFitting                                  ... on

GRIDX 3
-------
General Integration Accuracy     IntAcc      ... 4.338
Radial Grid Type                 RadialGrid  ... OptM3 with GC (2021)
Angular Grid (max. ang.)         AngularGrid ... 3 (Lebedev-194)
Angular grid pruning method      GridPruning ... 4 (adaptive)
Weight generation scheme         WeightScheme... mBecke (2022)
Basis function cutoff            BFCut       ... 1.0000e-11
Integration weight cutoff        WCut        ... 1.0000e-14
Partially contracted basis set               ... on
Rotationally invariant grid construction     ... off
Angular grids for H and He will be reduced by one unit

Total number of grid points                  ...    39225
Total number of batches                      ...      315
Average number of points per batch           ...      124
Average number of grid points per atom       ...     2452
UseSFitting                                  ... on
Grids setup in   0.7 sec
Initializing property integral containers    ... done (  0.0 sec)

SHARK setup successfully completed in   0.8 seconds

Maximum memory used throughout the entire STARTUP-calculation: 18.1 MB


           ************************************************************
           *        Program running with 6 parallel MPI-processes     *
           *              working on a common directory               *
           ************************************************************
-------------------------------------------------------------------------------
                                 ORCA GUESS
                   Start orbitals & Density for SCF / CASSCF
-------------------------------------------------------------------------------

------------
SCF SETTINGS
------------
Hamiltonian:
 Density Functional     Method          .... DFT(GTOs)
 Exchange Functional    Exchange        .... B88
   X-Alpha parameter    XAlpha          ....  0.666667
   Becke's b parameter  XBeta           ....  0.004200
 Correlation Functional Correlation     .... LYP
 LDA part of GGA corr.  LDAOpt          .... VWN-5
 Gradients option       PostSCFGGA      .... off
 Hybrid DFT is turned on
   Fraction HF Exchange ScalHFX         ....  0.200000
   Scaling of DF-GGA-X  ScalDFX         ....  0.720000
   Scaling of DF-GGA-C  ScalDFC         ....  0.810000
   Scaling of DF-LDA-C  ScalLDAC        ....  1.000000
   Perturbative correction              ....  0.000000
   NL short-range parameter             ....  4.800000
 RI-approximation to the Coulomb term is turned on
   Number of AuxJ basis functions       .... 368
   RIJ-COSX (HFX calculated with COS-X)).... on


General Settings:
 Integral files         IntName         .... orca
 Hartree-Fock type      HFTyp           .... RHF
 Total Charge           Charge          ....    0
 Multiplicity           Mult            ....    1
 Number of Electrons    NEL             ....   50
 Basis Dimension        Dim             ....  129
 Nuclear Repulsion      ENuc            ....    213.6381052622 Eh

Convergence Acceleration:
 AO-DIIS                CNVDIIS         .... on
   Start iteration      DIISMaxIt       ....    12
   Startup error        DIISStart       ....  0.200000
   # of expansion vecs  DIISMaxEq       ....     5
   Bias factor          DIISBfac        ....   1.050
   Max. coefficient     DIISMaxC        ....  10.000
 MO-DIIS                CNVKDIIS        .... off
 Trust-Rad. Augm. Hess. CNVTRAH         .... auto
   Auto Start mean grad. ratio tolernc. ....  1.125000
   Auto Start start iteration           ....    50
   Auto Start num. interpolation iter.  ....    10
   Max. Number of Micro iterations      ....    24
   Max. Number of Macro iterations      .... Maxiter - #DIIS iter
   Number of Davidson start vectors     ....     2
   Converg. threshold    (grad. norm)   ....   1.000e-05
   Grad. Scal. Fac. for Micro threshold ....   0.100
   Minimum threshold for Micro iter.    ....   1.000e-02
   NR start threshold (gradient norm)   ....   1.000e-04
   Initial trust radius                 ....   0.400
   Minimum AH scaling param. (alpha)    ....   1.000
   Maximum AH scaling param. (alpha)    .... 1000.000
   Quad. conv. algorithm                .... NR
   White noise on init. David. guess    .... on
   Maximum white noise                  ....   0.010
   Pseudo random numbers                .... off
   Inactive MOs                         .... canonical
   Orbital update algorithm             .... Taylor
   Preconditioner                       .... Diag
   Full preconditioner red. dimension   ....   250
 SOSCF                 CNVSOSCF           .... on
   Start iteration     SOSCFMaxIt         ....   150
   Startup grad/error  SOSCFStart         ....  0.003300
   Hessian update      SOSCFHessUp        .... L-BFGS
   Autom. constraints  SOSCFAutoConstrain .... off
 Level Shifting         CNVShift        .... on
   Level shift para.    LevelShift      ....    0.2500
   Turn off err/grad.   ShiftErr        ....    0.0010
 Zerner damping         CNVZerner       .... off
 Static damping         CNVDamp         .... on
   Fraction old density DampFac         ....    0.7000
   Max. Damping (<1)    DampMax         ....    0.9800
   Min. Damping (>=0)   DampMin         ....    0.0000
   Turn off err/grad.   DampErr         ....    0.1000

SCF Procedure:
 Maximum # iterations   MaxIter         ....   125
 SCF integral mode      SCFMode         .... Direct
   Integral package                     .... SHARK and LIBINT hybrid scheme
 Reset frequency        DirectResetFreq ....    20
 Integral Threshold     Thresh          ....  2.500e-11 Eh
 Primitive CutOff       TCut            ....  2.500e-12 Eh

Convergence Tolerance:
 Convergence Check Mode ConvCheckMode   .... Total+1el-Energy
 Convergence forced     ConvForced      .... 0
 Energy Change          TolE            ....  1.000e-08 Eh
 1-El. energy change                    ....  1.000e-05 Eh
 Orbital Gradient       TolG            ....  1.000e-05
 Orbital Rotation angle TolX            ....  1.000e-05
 DIIS Error             TolErr          ....  5.000e-07

------------------------------
INITIAL GUESS: MODEL POTENTIAL
------------------------------
Loading Hartree-Fock densities                     ... done
Calculating cut-offs                               ... done
Initializing the effective Hamiltonian             ... done
Setting up the integral package (SHARK)            ... done
Starting the Coulomb interaction                   ... done (   0.0 sec)
Making the grid                                    ... done (   0.1 sec)
Mapping shells                                     ... done
Starting the XC term evaluation                    ... done (   0.0 sec)
  promolecular density results
     # of electrons  =     49.994767592
     EX              =    -46.376262744
     EC              =     -1.679207819
     EX+EC           =    -48.055470563
Transforming the Hamiltonian                       ... done (   0.0 sec)
Diagonalizing the Hamiltonian                      ... done (   0.0 sec)
Back transforming the eigenvectors                 ... done (   0.0 sec)
Now organizing SCF variables                       ... done
                      ------------------
                      INITIAL GUESS DONE (   0.2 sec)
                      ------------------
             **** ENERGY FILE WAS UPDATED (orca.en.tmp) ****
Finished Guess after   0.3 sec
Maximum memory used throughout the entire GUESS-calculation: 8.2 MB


           ************************************************************
           *        Program running with 6 parallel MPI-processes     *
           *              working on a common directory               *
           ************************************************************

-------------------------------------------------------------------------------------------
                                      ORCA LEAN-SCF
                              memory conserving SCF solver
-------------------------------------------------------------------------------------------

----------------------------------------D-I-I-S--------------------------------------------
Iteration    Energy (Eh)           Delta-E    RMSDP     MaxDP     DIISErr   Damp  Time(sec)
-------------------------------------------------------------------------------------------
               ***  Starting incremental Fock matrix formation  ***
    1    -499.7797950592495226     0.00e+00  8.61e-03  8.91e-02  1.81e-01  0.700   0.6
    2    -499.8729497669067996    -9.32e-02  6.20e-03  5.39e-02  9.14e-02  0.700   0.4
                               ***Turning on AO-DIIS***
    3    -499.9105988139857573    -3.76e-02  2.67e-03  2.79e-02  3.32e-02  0.700   0.4
    4    -499.9319750785516590    -2.14e-02  4.76e-03  6.22e-02  1.65e-02  0.000   0.3
    5    -499.9781779738542582    -4.62e-02  7.86e-04  5.90e-03  6.88e-03  0.000   0.4
                              *** Initializing SOSCF ***
---------------------------------------S-O-S-C-F--------------------------------------
Iteration    Energy (Eh)           Delta-E    RMSDP     MaxDP     MaxGrad    Time(sec)
--------------------------------------------------------------------------------------
    6    -499.9785297551704843    -3.52e-04  2.75e-04  1.48e-03  2.39e-03     0.4
               *** Restarting incremental Fock matrix formation ***
    7    -499.9785839797153812    -5.42e-05  1.87e-04  1.03e-03  3.85e-04     0.6
    8    -499.9785847373792649    -7.58e-07  5.90e-05  6.29e-04  3.34e-04     0.5
    9    -499.9785869165150416    -2.18e-06  1.19e-05  1.78e-04  1.88e-05     0.4
   10    -499.9785869170134447    -4.98e-10  4.71e-06  4.59e-05  1.71e-05     0.4
                 **** Energy Check signals convergence ****

               *****************************************************
               *                     SUCCESS                       *
               *           SCF CONVERGED AFTER  10 CYCLES          *
               *****************************************************

Recomputing exchange energy using gridx3       ... done (    0.943 sec)
Old exchange energy                            :     -9.425585726 Eh
New exchange energy                            :     -9.425586077 Eh
Exchange energy change after final integration :     -0.000000351 Eh
Total energy after final integration           :   -499.978587275 Eh
             **** ENERGY FILE WAS UPDATED (orca.en.tmp) ****

----------------
TOTAL SCF ENERGY
----------------

Total Energy       :       -499.97858727521611 Eh          -13605.10903 eV

Components:
Nuclear Repulsion  :        213.63810526221107 Eh            5813.38839 eV
Electronic Energy  :       -713.61669218635677 Eh          -19418.49741 eV
One Electron Energy:      -1107.69867376251523 Eh          -30142.01330 eV
Two Electron Energy:        394.08198157615846 Eh           10723.51589 eV

Virial components:
Potential Energy   :       -996.95311244937716 Eh          -27128.47337 eV
Kinetic Energy     :        496.97452517416110 Eh           13523.36434 eV
Virial Ratio       :          2.00604470037977

DFT components:
N(Alpha)           :       25.000006510596 electrons
N(Beta)            :       25.000006510596 electrons
N(Total)           :       50.000013021192 electrons
E(X)               :      -37.352469081012 Eh       
E(C)               :       -1.994550998437 Eh       
E(XC)              :      -39.347020079449 Eh       

---------------
SCF CONVERGENCE
---------------

  Last Energy change         ...    4.9840e-10  Tolerance :   1.0000e-08
  Last MAX-Density change    ...    4.5864e-05  Tolerance :   1.0000e-07
  Last RMS-Density change    ...    4.7105e-06  Tolerance :   5.0000e-09
  Last DIIS Error            ...    2.3877e-03  Tolerance :   5.0000e-07
  Last Orbital Gradient      ...    1.7066e-05  Tolerance :   1.0000e-05
  Last Orbital Rotation      ...    1.9604e-05  Tolerance :   1.0000e-05


----------------
ORBITAL ENERGIES
----------------

  NO   OCC          E(Eh)            E(eV) 
   0   2.0000     -77.038656     -2096.3284 
   1   2.0000     -10.184782      -277.1420 
   2   2.0000     -10.183370      -277.1036 
   3   2.0000     -10.183020      -277.0941 
   4   2.0000     -10.179979      -277.0113 
   5   2.0000      -6.536606      -177.8701 
   6   2.0000      -4.701962      -127.9469 
   7   2.0000      -4.701825      -127.9432 
   8   2.0000      -4.699035      -127.8672 
   9   2.0000      -0.746176       -20.3045 
  10   2.0000      -0.732525       -19.9330 
  11   2.0000      -0.675816       -18.3899 
  12   2.0000      -0.565893       -15.3987 
  13   2.0000      -0.549879       -14.9630 
  14   2.0000      -0.461674       -12.5628 
  15   2.0000      -0.427464       -11.6319 
  16   2.0000      -0.419251       -11.4084 
  17   2.0000      -0.414390       -11.2761 
  18   2.0000      -0.398135       -10.8338 
  19   2.0000      -0.393453       -10.7064 
  20   2.0000      -0.349965        -9.5230 
  21   2.0000      -0.335417        -9.1272 
  22   2.0000      -0.329532        -8.9670 
  23   2.0000      -0.270559        -7.3623 
  24   2.0000      -0.232568        -6.3285 
  25   0.0000       0.009143         0.2488 
  26   0.0000       0.040165         1.0930 
  27   0.0000       0.051653         1.4055 
  28   0.0000       0.085068         2.3148 
  29   0.0000       0.087781         2.3886 
  30   0.0000       0.102550         2.7905 
  31   0.0000       0.112694         3.0666 
  32   0.0000       0.121812         3.3147 
  33   0.0000       0.125064         3.4032 
  34   0.0000       0.134302         3.6546 
  35   0.0000       0.151885         4.1330 
*Only the first 10 virtual orbitals were printed.

                    ********************************
                    * MULLIKEN POPULATION ANALYSIS *
                    ********************************

-----------------------
MULLIKEN ATOMIC CHARGES
-----------------------
   0 P :    0.156599
   1 H :   -0.052018
   2 C :   -0.189126
   3 C :   -0.187142
   4 H :    0.044607
   5 H :    0.051896
   6 H :    0.038451
   7 H :    0.046507
   8 H :    0.040793
   9 H :    0.047000
  10 H :    0.044865
  11 C :   -0.059844
  12 C :   -0.065951
  13 H :    0.025334
  14 H :    0.026290
  15 H :    0.031738
Sum of atomic charges:    0.0000000

--------------------------------
MULLIKEN REDUCED ORBITAL CHARGES
--------------------------------
  0 P s       :     5.739419  s :     5.739419
      pz      :     2.946427  p :     8.957802
      px      :     3.098967
      py      :     2.912407
      dz2     :     0.051940  d :     0.146180
      dxz     :     0.011945
      dyz     :     0.010727
      dx2y2   :     0.050801
      dxy     :     0.020767

  1 H s       :     1.035558  s :     1.035558
      pz      :     0.011431  p :     0.016460
      px      :     0.002788
      py      :     0.002240

  2 C s       :     3.086862  s :     3.086862
      pz      :     1.027816  p :     3.079808
      px      :     1.011097
      py      :     1.040895
      dz2     :     0.007037  d :     0.022456
      dxz     :     0.003341
      dyz     :     0.002317
      dx2y2   :     0.005983
      dxy     :     0.003779

  3 C s       :     3.090497  s :     3.090497
      pz      :     1.030514  p :     3.074170
      px      :     1.020737
      py      :     1.022919
      dz2     :     0.006269  d :     0.022475
      dxz     :     0.003863
      dyz     :     0.002755
      dx2y2   :     0.004809
      dxy     :     0.004779

  4 H s       :     0.932001  s :     0.932001
      pz      :     0.013527  p :     0.023392
      px      :     0.004796
      py      :     0.005069

  5 H s       :     0.924319  s :     0.924319
      pz      :     0.005208  p :     0.023785
      px      :     0.004711
      py      :     0.013866

  6 H s       :     0.938450  s :     0.938450
      pz      :     0.007033  p :     0.023099
      px      :     0.008638
      py      :     0.007428

  7 H s       :     0.930050  s :     0.930050
      pz      :     0.013338  p :     0.023443
      px      :     0.004922
      py      :     0.005183

  8 H s       :     0.936099  s :     0.936099
      pz      :     0.006854  p :     0.023109
      px      :     0.010348
      py      :     0.005907

  9 H s       :     0.929617  s :     0.929617
      pz      :     0.006034  p :     0.023382
      px      :     0.011260
      py      :     0.006088

 10 H s       :     0.931373  s :     0.931373
      pz      :     0.007442  p :     0.023762
      px      :     0.006984
      py      :     0.009336

 11 C s       :     3.128445  s :     3.128445
      pz      :     0.983893  p :     2.904181
      px      :     0.965048
      py      :     0.955240
      dz2     :     0.007020  d :     0.027218
      dxz     :     0.007222
      dyz     :     0.010127
      dx2y2   :     0.000771
      dxy     :     0.002079

 12 C s       :     3.128310  s :     3.128310
      pz      :     0.981617  p :     2.910322
      px      :     0.971736
      py      :     0.956969
      dz2     :     0.006948  d :     0.027320
      dxz     :     0.007304
      dyz     :     0.010250
      dx2y2   :     0.000770
      dxy     :     0.002047

 13 H s       :     0.951448  s :     0.951448
      pz      :     0.006149  p :     0.023218
      px      :     0.006193
      py      :     0.010875

 14 H s       :     0.950553  s :     0.950553
      pz      :     0.007568  p :     0.023157
      px      :     0.006962
      py      :     0.008626

 15 H s       :     0.944976  s :     0.944976
      pz      :     0.006071  p :     0.023285
      px      :     0.006236
      py      :     0.010979



                     *******************************
                     * LOEWDIN POPULATION ANALYSIS *
                     *******************************

----------------------
LOEWDIN ATOMIC CHARGES
----------------------
   0 P :    0.375899
   1 H :   -0.081036
   2 C :   -0.217272
   3 C :   -0.219321
   4 H :    0.025820
   5 H :    0.028476
   6 H :    0.019876
   7 H :    0.026634
   8 H :    0.020591
   9 H :    0.027838
  10 H :    0.022067
  11 C :   -0.048013
  12 C :   -0.050540
  13 H :    0.022954
  14 H :    0.023058
  15 H :    0.022969

-------------------------------
LOEWDIN REDUCED ORBITAL CHARGES
-------------------------------
  0 P s       :     5.358828  s :     5.358828
      pz      :     2.972821  p :     9.075311
      px      :     3.153908
      py      :     2.948582
      dz2     :     0.071828  d :     0.189962
      dxz     :     0.013878
      dyz     :     0.012149
      dx2y2   :     0.067415
      dxy     :     0.024692

  1 H s       :     1.037511  s :     1.037511
      pz      :     0.029594  p :     0.043525
      px      :     0.008042
      py      :     0.005889

  2 C s       :     2.901445  s :     2.901445
      pz      :     1.083379  p :     3.259900
      px      :     1.089457
      py      :     1.087065
      dz2     :     0.017561  d :     0.055926
      dxz     :     0.007920
      dyz     :     0.005735
      dx2y2   :     0.015573
      dxy     :     0.009137

  3 C s       :     2.903430  s :     2.903430
      pz      :     1.083838  p :     3.259826
      px      :     1.081323
      py      :     1.094665
      dz2     :     0.015817  d :     0.056064
      dxz     :     0.009877
      dyz     :     0.006201
      dx2y2   :     0.012621
      dxy     :     0.011548

  4 H s       :     0.906907  s :     0.906907
      pz      :     0.039505  p :     0.067272
      px      :     0.014581
      py      :     0.013187

  5 H s       :     0.902388  s :     0.902388
      pz      :     0.013629  p :     0.069136
      px      :     0.014656
      py      :     0.040851

  6 H s       :     0.912256  s :     0.912256
      pz      :     0.018974  p :     0.067867
      px      :     0.028412
      py      :     0.020482

  7 H s       :     0.906051  s :     0.906051
      pz      :     0.038590  p :     0.067315
      px      :     0.012265
      py      :     0.016460

  8 H s       :     0.911490  s :     0.911490
      pz      :     0.018431  p :     0.067920
      px      :     0.029560
      py      :     0.019928

  9 H s       :     0.904715  s :     0.904715
      pz      :     0.015863  p :     0.067447
      px      :     0.031949
      py      :     0.019634

 10 H s       :     0.909360  s :     0.909360
      pz      :     0.020208  p :     0.068573
      px      :     0.021162
      py      :     0.027203

 11 C s       :     2.893785  s :     2.893785
      pz      :     1.082765  p :     3.084699
      px      :     0.980572
      py      :     1.021363
      dz2     :     0.020101  d :     0.069529
      dxz     :     0.016412
      dyz     :     0.025988
      dx2y2   :     0.001955
      dxy     :     0.005073

 12 C s       :     2.892003  s :     2.892003
      pz      :     1.081173  p :     3.088745
      px      :     0.984966
      py      :     1.022605
      dz2     :     0.019929  d :     0.069792
      dxz     :     0.016616
      dyz     :     0.026297
      dx2y2   :     0.001948
      dxy     :     0.005002

 13 H s       :     0.910975  s :     0.910975
      pz      :     0.016256  p :     0.066071
      px      :     0.018276
      py      :     0.031539

 14 H s       :     0.910825  s :     0.910825
      pz      :     0.020247  p :     0.066117
      px      :     0.020662
      py      :     0.025208

 15 H s       :     0.910229  s :     0.910229
      pz      :     0.015939  p :     0.066802
      px      :     0.018783
      py      :     0.032080



                      *****************************
                      * MAYER POPULATION ANALYSIS *
                      *****************************

  NA   - Mulliken gross atomic population
  ZA   - Total nuclear charge
  QA   - Mulliken gross atomic charge
  VA   - Mayer's total valence
  BVA  - Mayer's bonded valence
  FA   - Mayer's free valence

  ATOM       NA         ZA         QA         VA         BVA        FA
  0 P     14.8434    15.0000     0.1566     3.0501     3.0501     0.0000
  1 H      1.0520     1.0000    -0.0520     0.9476     0.9476     0.0000
  2 C      6.1891     6.0000    -0.1891     3.9272     3.9272    -0.0000
  3 C      6.1871     6.0000    -0.1871     3.9235     3.9235     0.0000
  4 H      0.9554     1.0000     0.0446     0.9818     0.9818     0.0000
  5 H      0.9481     1.0000     0.0519     1.0083     1.0083     0.0000
  6 H      0.9615     1.0000     0.0385     0.9841     0.9841     0.0000
  7 H      0.9535     1.0000     0.0465     0.9824     0.9824     0.0000
  8 H      0.9592     1.0000     0.0408     0.9837     0.9837     0.0000
  9 H      0.9530     1.0000     0.0470     0.9832     0.9832    -0.0000
 10 H      0.9551     1.0000     0.0449     0.9922     0.9922     0.0000
 11 C      6.0598     6.0000    -0.0598     4.0097     4.0097     0.0000
 12 C      6.0660     6.0000    -0.0660     4.0170     4.0170     0.0000
 13 H      0.9747     1.0000     0.0253     0.9740     0.9740    -0.0000
 14 H      0.9737     1.0000     0.0263     0.9740     0.9740     0.0000
 15 H      0.9683     1.0000     0.0317     0.9810     0.9810    -0.0000

  Mayer bond orders larger than 0.100000
B(  0-P ,  1-H ) :   0.9239 B(  0-P ,  2-C ) :   1.0247 B(  0-P ,  3-C ) :   1.0091 
B(  2-C ,  4-H ) :   0.9701 B(  2-C ,  5-H ) :   0.9653 B(  2-C ,  6-H ) :   0.9635 
B(  3-C ,  7-H ) :   0.9718 B(  3-C ,  8-H ) :   0.9645 B(  3-C ,  9-H ) :   0.9698 
B( 10-H , 11-C ) :   0.9528 B( 11-C , 12-C ) :   2.0662 B( 11-C , 13-H ) :   0.9608 
B( 12-C , 14-H ) :   0.9620 B( 12-C , 15-H ) :   0.9594 

-------
TIMINGS
-------

Total SCF time: 0 days 0 hours 0 min 6 sec 

Total time                  ....       6.052 sec
Sum of individual times     ....       5.599 sec  ( 92.5%)

SCF preparation             ....       0.167 sec  (  2.8%)
Fock matrix formation       ....       5.250 sec  ( 86.7%)
  Startup                   ....       0.004 sec  (  0.1% of F)
  Split-RI-J                ....       0.408 sec  (  7.8% of F)
  Chain of spheres X        ....       4.093 sec  ( 78.0% of F)
  XC integration            ....       1.045 sec  ( 19.9% of F)
    XC Preparation          ....       0.000 sec  (  0.0% of XC)
    Basis function eval.    ....       0.355 sec  ( 34.0% of XC)
    Density eval.           ....       0.175 sec  ( 16.7% of XC)
    XC-Functional eval.     ....       0.076 sec  (  7.2% of XC)
    XC-Potential eval.      ....       0.186 sec  ( 17.8% of XC)
Diagonalization             ....       0.000 sec  (  0.0%)
Density matrix formation    ....       0.023 sec  (  0.4%)
Total Energy calculation    ....       0.012 sec  (  0.2%)
Population analysis         ....       0.016 sec  (  0.3%)
Orbital Transformation      ....       0.015 sec  (  0.2%)
Orbital Orthonormalization  ....       0.000 sec  (  0.0%)
DIIS solution               ....       0.075 sec  (  1.2%)
SOSCF solution              ....       0.042 sec  (  0.7%)
Finished LeanSCF after   6.1 sec

Maximum memory used throughout the entire LEANSCF-calculation: 11.2 MB


-------------------------------------------------------------------------------
                          DFT DISPERSION CORRECTION                            
                                                                               
                              DFTD3 V3.1  Rev 1                                
                          USING Becke-Johnson damping                          
-------------------------------------------------------------------------------
The B3LYP functional is recognized
Active option DFTDOPT                   ...         4   

molecular C6(AA) [au] = 2518.961193 


            DFT-D V3
 parameters
 s6 scaling factor         :     1.0000 
 a1 scaling factor         :     0.3981 
 s8 scaling factor         :     1.9889 
 a2 scaling factor         :     4.4211 
 ad hoc parameters k1-k3   :    16.0000     1.3333    -4.0000 

 Edisp/kcal,au: -12.359520200225  -0.019696147059 
 E6   /kcal   :  -5.815476587 
 E8   /kcal   :  -6.544043613 
 % E8         :  52.947392030 

-------------------------   ----------------
Dispersion correction           -0.019696147
-------------------------   ----------------


-------------------------   --------------------
FINAL SINGLE POINT ENERGY      -499.998283422275
-------------------------   --------------------



           ************************************************************
           *        Program running with 6 parallel MPI-processes     *
           *              working on a common directory               *
           ************************************************************
------------------------------------------------------------------------------
                         ORCA SCF GRADIENT CALCULATION
------------------------------------------------------------------------------

Nuc. rep. gradient        (SHARK) ... done (  0.0 sec)
HCore & Overlap gradient  (SHARK) ... done (  0.0 sec)
Split-RIJ-J gradient      (SHARK) ... done (  0.2 sec)
done (  2.9 sec)
XC gradient                       ... done (  0.7 sec)
Dispersion correction             ... done (  0.1 sec)

-------------------
DISPERSION GRADIENT
-------------------

   1   P   :   -0.000176657   -0.000926724   -0.000198472
   2   H   :   -0.000086515   -0.000113700    0.000203547
   3   C   :    0.000414089   -0.000039199   -0.000173016
   4   C   :   -0.000191336   -0.000343969   -0.000003032
   5   H   :    0.000191304    0.000078312   -0.000157441
   6   H   :    0.000301553   -0.000073804   -0.000121512
   7   H   :    0.000260325    0.000052055   -0.000007951
   8   H   :   -0.000088805   -0.000215176   -0.000090902
   9   H   :   -0.000015041   -0.000255122    0.000040457
  10   H   :   -0.000093094   -0.000162481    0.000002498
  11   H   :   -0.000161496    0.000292076   -0.000111047
  12   C   :   -0.000165765    0.000685352   -0.000004756
  13   C   :   -0.000107378    0.000580713    0.000328185
  14   H   :   -0.000008941    0.000150418   -0.000076342
  15   H   :    0.000017828    0.000088045    0.000118977
  16   H   :   -0.000090071    0.000203206    0.000250809

Difference to translation invariance:
           :    0.0000000000    0.0000000000    0.0000000000

Difference to rotation invariance:
           :    0.0000000000   -0.0000000000   -0.0000000000

Norm of the Dispersion gradient    ...    0.0017329958
RMS gradient                       ...    0.0002501364
MAX gradient                       ...    0.0009267239

------------------
CARTESIAN GRADIENT
------------------

   1   P   :   -0.000032742   -0.000002752   -0.000120526
   2   H   :    0.000021360    0.000058614    0.000078968
   3   C   :    0.000020770   -0.000066983    0.000093089
   4   C   :   -0.000083692   -0.000032816    0.000050936
   5   H   :    0.000028001    0.000080817   -0.000030027
   6   H   :   -0.000021496    0.000064348   -0.000166918
   7   H   :   -0.000048944   -0.000016114    0.000075425
   8   H   :    0.000011064    0.000038268    0.000005562
   9   H   :   -0.000007001   -0.000047263    0.000015240
  10   H   :    0.000074485   -0.000075057   -0.000045022
  11   H   :   -0.000096336    0.000047159    0.000015685
  12   C   :    0.000209162   -0.000067653   -0.000033205
  13   C   :   -0.000135935    0.000042080    0.000093659
  14   H   :    0.000002617   -0.000016434    0.000003980
  15   H   :    0.000013844    0.000021794   -0.000028167
  16   H   :    0.000044842   -0.000028008   -0.000008679

Difference to translation invariance:
           :    0.0000000000   -0.0000000000    0.0000000000

Difference to rotation invariance:
           :   -0.0001068635   -0.0000743240   -0.0000460841

Norm of the Cartesian gradient     ...    0.0004595472
RMS gradient                       ...    0.0000663299
MAX gradient                       ...    0.0002091622

-------
TIMINGS
-------

Total SCF gradient time     ....        3.952 sec

Densities                   ....       0.001 sec  (  0.0%)
One electron gradient       ....       0.042 sec  (  1.1%)
RI-J Coulomb gradient       ....       0.220 sec  (  5.6%)
COSX gradient               ....       2.897 sec  ( 73.3%)
XC gradient                 ....       0.740 sec  ( 18.7%)

Maximum memory used throughout the entire SCFGRAD-calculation: 28.2 MB


           ************************************************************
           *        Program running with 6 parallel MPI-processes     *
           *              working on a common directory               *
           ************************************************************

------------------------------------------------------------------------------
                              ORCA PROPERTY CALCULATIONS
------------------------------------------------------------------------------

GBWName                                 ... orca.gbw
Number of atoms                         ...     16
Number of basis functions               ...    129
Max core memory                         ...   4096 MB

Electric properties:
Dipole moment                           ... YES
Quadrupole moment                       ...  NO
Static polarizability (Dipole/Dipole)   ...  NO
Static polarizability (Dipole/Quad.)    ...  NO
Static polarizability (Quad./Quad.)     ...  NO
Static polarizability (Velocity)        ...  NO
Static hyperpolarizability              ...  NO

Atomic electric properties:
Dipole moment                           ...  NO
Quadrupole moment                       ...  NO
Static polarizability                   ...  NO

Choice of electric origin               ... Center of mass
Position of electric origin             ...    -0.367804     1.283811    -0.069455

General magnetic properties:
Magnetizability                         ...  NO

EPR properties:
g-Tensor (aka g-matrix)                 ...  NO
Zero-Field splitting spin-orbit         ...  NO
Zero-field splitting spin-spin          ...  NO
Hyperfine couplings                     ...  NO (   0 nuclei)
Quadrupole couplings                    ...  NO (   0 nuclei)
Contact density                         ...  NO (   0 nuclei)

NMR properties:
Chemical shifts                         ...  NO (   0 nuclei)
Spin-rotation constants                 ...  NO (   0 nuclei)
Spin-spin couplings                     ...  NO (   0 nuclei,    0 pairs)

Choice of magnetic origin               ... GIAO
Position of magnetic origin             ...     0.000000     0.000000     0.000000

Properties with geometric perturbations:
SCF Hessian                             ...  NO
IR spectrum                             ...  NO
VCD spectrum                            ...  NO
X-ray spectroscopy properties:
SCF XES/XAS/RIXS spectra                ...  NO

SCF SOC stabilization energy            ...  NO
Diagonal Born-Oppenheimer correction    ...  NO

-------------
DIPOLE MOMENT
-------------

Method             : SCF
Type of density    : Electron Density
Multiplicity       :   1
Irrep              :   0
Energy             :  -499.9785872752161140 Eh
Basis              : AO
                                X                 Y                 Z
Electronic contribution:     -2.953981304      -0.811878536      -0.795700175
Nuclear contribution   :      3.310666239       0.566450772       0.837060563
                        -----------------------------------------
Total Dipole Moment    :      0.356684935      -0.245427764       0.041360388
                        -----------------------------------------
Magnitude (a.u.)       :      0.434936331
Magnitude (Debye)      :      1.105520297



--------------------
Rotational spectrum 
--------------------
 
Rotational constants in cm-1:             0.238711             0.042043             0.039148 
Rotational constants in MHz :          7156.382222          1260.410788          1173.622063 

Dipole components along the rotational axes: 
x,y,z [a.u.] :    -0.247868     0.259080     0.246187 
x,y,z [Debye]:    -0.630031     0.658530     0.625759 

 

Dipole moment calculation done in   0.0 sec 

Maximum memory used throughout the entire PROP-calculation: 6.3 MB

--------------------------------
SUGGESTED CITATIONS FOR THIS RUN
--------------------------------

Below you find a list of papers that are relevant to this ORCA run
We neither can nor want to force you to cite these papers, but we appreciate if you do
You receive ORCA, which is the product of decades of hard work by many enthusiastic individuals, for free
The only thing we kindly ask in return is that you cite our papers,
We deeply appreciate it, if you show your appreciation for ORCA by not just citing the generic ORCA reference.

Please note that relegating all ORCA citations to the supporting information does *not* help us.
SI sections are not indexed - citations you put there will not count into any citation statistics
But we need these citations in order to attract the funding resources that allow us to do what we are doing

Therefore, if you are a happy ORCA user, please consider citing a few of the papers listed below in the main body of your paper

In addition to the list printed below, the program has created the file orca.bibtex that contains the list in bibtex format
You can import this file easily into all common literature databanks and citation aid programs


List of essential papers. We consider these as the minimum necessary citations

  1. Neese, F.
     Software update: the ORCA program system, version 6.0
     WIRES Comput. Molec. Sci. 2025 15(1), e70019
     doi.org/10.1002/wcms.7019

List of papers to cite with high priority. The work reported in these papers was absolutely
necessary for this run to complete.
Our perspective: the developers of density functionals and basis sets usually get cited in chemistry papers
Good! But without the algorithms to do something with them, the functionals or basis sets would not do anything.
Hence, in our opinion, the algorithm design and method developments papers are equally worthy of getting cited

  1. Neese, F.
     An improvement of the resolution of the identity approximation for the formation of the Coulomb matrix
     J. Comp. Chem. 2003 24(14), 1740-1747
     doi.org/10.1002/jcc.10318
  2. Neese, F.; Wennmohs, F.; Hansen, A.; Becker, U.
     Efficient, approximate and parallel Hartree-Fock and hybrid DFT calculations. A 'chain-of-spheres' algorithm for the Hartree-Fock exchange
     Chem. Phys. 2009 356(1-3), 98-109
     doi.org/10.1016/j.chemphys.2008.10.036
  3. Grimme, S.; Antony, J.; Ehrlich, S.; Krieg, H.
     A consistent and accurate ab initio parametrization of density functional dispersion correction (DFT-D) for the 94 elements H-Pu
     J. Chem. Phys. 2010 132 , 154104
     doi.org/10.1063/1.3382344
  4. Grimme, S.; Ehrlich, S.; Goerigk, L.
     Effect of the damping function in dispersion corrected density functional theory
     J. Comput. Chem. 2011 32(7), 1456-1465
     doi.org/10.1002/jcc.21759
  5. Helmich-Paris, B.; de Souza, B.; Neese, F.; Izsák, R.
     An improved chain of spheres for exchange algorithm
     J. Chem. Phys. 2021 155(10), 104109
     doi.org/10.1063/5.0058766
  6. Neese, F.
     The SHARK Integral Generation and Digestion System
     J. Comp. Chem. 2022 44(3), 381
     doi.org/10.1002/jcc.26942

List of suggested additional citations. These are papers that are important in the 'surrounding' of 
of this run, or papers that preceded the highly important papers. If you like your results we are grateful for a citation.

  1. Izsak, R.; Neese, F.
     An overlap fitted chain of spheres exchange method
     J. Chem. Phys. 2011 135 , 144105
     doi.org/10.1063/1.3646921
  2. Izsak, R.; Hansen, A.; Neese, F.
     The resolution of identity and chain of spheres approximations for the LPNO-CCSD singles Fock term
     Molec. Phys. 2012 110 , 2413-2417
     doi.org/10.1080/00268976.2012.687466
  3. Neese, F.
     The ORCA program system
     WIRES Comput. Molec. Sci. 2012 2(1), 73-78
     doi.org/10.1002/wcms.81
  4. Izsak, R.; Neese, F.; Klopper, W.
     Robust fitting techniques in the chain of spheres approximation to the Fock exchange: The role of the complementary space
     J. Chem. Phys. 2013 139 , 
     doi.org/10.1063/1.4819264
  5. Neese, F.
     Software update: the ORCA program system, version 4.0
     WIRES Comput. Molec. Sci. 2018 8(1), 1-6
     doi.org/10.1002/wcms.1327
  6. Neese, F.; Wennmohs, F.; Becker, U.; Riplinger, C.
     The ORCA quantum chemistry program package
     J. Chem. Phys. 2020 152(22), 224108
     doi.org/10.1063/5.0004608
  7. Neese, F.
     Software update: The ORCA program system—Version 5.0
     WIRES Comput. Molec. Sci. 2022 12(1), e1606
     doi.org/10.1002/wcms.1606

List of optional additional citations

  1. Neese, F.
     Approximate second-order SCF convergence for spin unrestricted wavefunctions
     Chem. Phys. Lett. 2000 325(1-3), 93-98
     doi.org/10.1016/s0009-2614(00)00662-x

Timings for individual modules:

Sum of individual times          ...       12.989 sec (=   0.216 min)
Startup calculation              ...        1.214 sec (=   0.020 min)   9.3 %
SCF iterations                   ...        6.965 sec (=   0.116 min)  53.6 %
Property calculations            ...        0.445 sec (=   0.007 min)   3.4 %
SCF Gradient evaluation          ...        4.364 sec (=   0.073 min)  33.6 %
                             ****ORCA TERMINATED NORMALLY****
TOTAL RUN TIME: 0 days 0 hours 0 minutes 13 seconds 580 msec
