
                                 *****************
                                 * O   R   C   A *
                                 *****************

                                            #,                                       
                                            ###                                      
                                            ####                                     
                                            #####                                    
                                            ######                                   
                                           ########,                                 
                                     ,,################,,,,,                         
                               ,,#################################,,                 
                          ,,##########################################,,             
                       ,#########################################, ''#####,          
                    ,#############################################,,   '####,        
                  ,##################################################,,,,####,       
                ,###########''''           ''''###############################       
              ,#####''   ,,,,##########,,,,          '''####'''          '####       
            ,##' ,,,,###########################,,,                        '##       
           ' ,,###''''                  '''############,,,                           
         ,,##''                                '''############,,,,        ,,,,,,###''
      ,#''                                            '''#######################'''  
     '                                                          ''''####''''         
             ,#######,   #######,   ,#######,      ##                                
            ,#'     '#,  ##    ##  ,#'     '#,    #''#        ,####,    ,#,          
            ##       ##  ##   ,#'  ##            #'  '#       #'       ,# #          
            ##       ##  #######   ##           ,######,      #####,      #          
            '#,     ,#'  ##    ##  '#,     ,#' ,#      #,     #,   #      #          
             '#######'   ##     ##  '#######'  #'      '#     '####' #    #          



                #########################################################
                #                        -***-                          #
                #          Department of theory and spectroscopy        #
                #                                                       #
                #                      Frank Neese                      #
                #                                                       #
                #     Directorship, Architecture, Infrastructure        #
                #                    SHARK, DRIVERS                     #
                #        Core code/Algorithms in most modules           #
                #                                                       #
                #        Max Planck Institute fuer Kohlenforschung      #
                #                Kaiser Wilhelm Platz 1                 #
                #                 D-45470 Muelheim/Ruhr                 #
                #                      Germany                          #
                #                                                       #
                #                  All rights reserved                  #
                #                        -***-                          #
                #########################################################


                         Program Version 6.1.0  -  RELEASE   -
                                (GIT: $679e74b$)
                          ($2025-06-10 18:02:51 +0200$)


 With contributions from (in alphabetic order):
[Max-Planck-Institut fuer Kohlenforschung]                               
  Daniel Aravena         : Magnetic Suceptibility                        
  Michael Atanasov       : Ab Initio Ligand Field Theory (pilot matlab implementation)
  Alexander A. Auer      : GIAO ZORA, VPT2 properties, NMR spectrum      
  Ute Becker             : All parallelization in ORCA, NUMFREQ, NUMCALC 
  Giovanni Bistoni       : ED, misc. LED, open-shell LED, HFLD           
  Dmytro Bykov           : pre 5.0 version of the SCF Hessian            
  Marcos Casanova-Páez   : Triplet and SCS-CIS(D). UHF-(DLPNO)-IP/EA/STEOM-CCSD. UHF-CVS-IP/STEOM-CCSD   
  Vijay G. Chilkuri      : MRCI spin determinant printing, contributions to CSF-ICE 
  Pauline Colinet        : FMM embedding                                 
  Dipayan Datta          : RHF DLPNO-CCSD density                        
  Achintya Kumar Dutta   : EOM-CC, STEOM-CC                              
  Nicolas Foglia         : Exact transition moments, OPA infrastructure, MCD improvements    
  Dmitry Ganyushin       : Spin-Orbit,Spin-Spin,Magnetic field MRCI      
  Miquel Garcia-Rates    : C-PCM and meta-GGA Hessian, CCSD/C-PCM, Gaussian charge scheme 
  Tiago L. C. Gouveia    : GS-ROHF, GS-ROCIS                             
  Yang Guo               : DLPNO-NEVPT2, F12-NEVPT2, CIM, IAO-localization        
  Andreas Hansen         : Spin unrestricted coupled pair/coupled cluster methods 
  Ingolf Harden          : AUTO-CI MPn and infrastructure                
  Benjamin Helmich-Paris : MC-RPA, TRAH-(SCF,CASSCF), AVAS, COSX integrals, SCF dyn. polar., MC-PDFT, srDFT 
  Lee Huntington         : MR-EOM, pCC                                   
  Robert Izsak           : Overlap fitted RIJCOSX, COSX-SCS-MP3, EOM     
  Riya Kayal             : Wick's Theorem for AUTO-CI, AUTO-CI UHF-CCSDT 
  Emily Kempfer          : AUTO-CI RHF CISDT and CCSDT, approximate NEVPT4
  Christian Kollmar      : KDIIS, OOCD, Brueckner-CCSD(T), CCSD density, CASPT2, CASPT2-K, improved NEVPT2 
  Axel Koslowski         : Symmetry handling                             
  Simone Kossmann        : meta-GGA functionals, TD-DFT gradient, OOMP2, (MP2 Hessian; deprecated post 5.0) 
  Lucas Lang             : DCDCAS, Hyperfine gauge corrections, ICE-SOC+SSC
  Marvin Lechner         : AUTO-CI (C++ implementation), FIC-MRCC        
  Spencer Leger          : CASSCF response                               
  Dagmar Lenk            : GEPOL surface, SMD, ORCA-2-JSON               
  Dimitrios Liakos       : Extrapolation schemes; Compound Job, Property file
  Dimitrios Manganas     : Further ROCIS development; embedding schemes. LFT, Crystal Embedding 
  Dimitrios Pantazis     : SARC Basis sets                               
  Anastasios Papadopoulos: AUTO-CI, single reference methods and gradients 
  Taras Petrenko         : pre 6.0 DFT Hessian and TD-DFT gradient,  ECA, NRVS 
  Petra Pikulova         : Analytic Raman intensities                    
  Peter Pinski           : DLPNO-MP2, DLPNO-MP2 Gradient                 
  Shashank Vittal Rao    : ES-AILFT, MagRelax                            
  Christoph Reimann      : Effective Core Potentials                     
  Marius Retegan         : Local ZFS, SOC                                
  Christoph Riplinger    : Optimizer, TS searches, QM/MM, DLPNO-CCSD(T), (RO)-DLPNO pert. Triples 
  Michael Roemelt        : Original ROCIS implementation, recursive CI coupling coefficients
  Masaaki Saitow         : Open-shell DLPNO-CCSD energy and density      
  Barbara Sandhoefer     : DKH picture change effects                    
  Yorick L. A. Schmerwitz: GMF and freeze-and-release deltaSCF, NEB S-IDPP initial path                    
  Kantharuban Sivalingam : CASSCF convergence/infrastructure, NEVPT2, NEVPT3, NEVPT4(SD), FIC-MRCI and CEPA variants
  Bernardo de Souza      : ESD, SOC TD-DFT                               
  Georgi L. Stoychev     : AutoAux, RI-MP2 NMR, DLPNO-MP2 response, X2C  
  Van Anh Tran           : RI-MP2 g-tensors                              
  Willem Van den Heuvel  : Paramagnetic NMR                              
  Zikuan Wang            : NOTCH, Electric field optimization            
  Frank Wennmohs         : Technical directorship and infrastructure     
  Hang Xu                : AUTO-CI-Response properties                   
                                                                         
[FACCTs GmbH]                                                            
  Markus Bursch, Nicolas Foglia, Miquel Garcia-Rates, Ingolf Harden, Hagen Neugebauer, Anastasios Papadopoulos, 
  Christoph Riplinger, Bernardo de Souza, Georgi L. Stoychev                                                    
                                                                 
  APM, various basis sets, CI-OPT, improved COSX, DLPNO-Multilevel,           
  DOCKER, DRACO, updates on ESD, Fragmentator, GOAT, IRC, LR-CPCM, L-BFGS, MBIS, meta-GGA TD-DFT gradient, ML-optimized integration grids, 
  MM, NACMEs, nearIR, NEB, NEB-TS, NL-DFT gradient (VV10), 2- and 3-layer-ONIOM, interface openCOSMO-RS, QMMM,   
  Crystal-QMMM, RESP, rigid body optimization, SF, symmetry and pop. for TD-DFT, various functionals, SOLVATOR                                   
                                                                         
[Other institutions]                                                     
  V. Asgeirsson          : NEB                                           
  Christoph Bannwarth    : sTDA-DFT, sTD-DFT, PBEh-3c, B97-3c, D3        
  Giovanni Bistoni       : ETS/NOCV, ADLD/ADEX, COVALED                  
  Martin Brehm           : Molecular dynamics                            
  Ronald Cardenas        : ETS/NOCV                                      
  Martina Colucci        : COVALED                                       
  Sebastian Ehlert       : rSCAN, r2SCAN, r2SCAN-3c, D4, dhf basis sets  
  Marvin Friede          : D4 for Fr, Ra, Ac-Lr                          
  Lars Goerigk           : TD-DFT with DH, B97 family of functionals     
  Stefan Grimme          : VdW corrections, initial TS optimization, DFT functionals, gCP, sTDA/sTD-DF 
  Waldemar Hujo          : DFT-NL                                        
  H. Jonsson             : NEB                                           
  Holger Kruse           : gCP                                           
  Marcel Mueller         : wB97X-3c, vDZP basis set                      
  Hagen Neugebauer       : wr2SCAN, Native XTB                           
  Gianluca Regni         : ADLD/ADEX                                     
  Tobias Risthaus        : pre 6.0 range-separated hybrid DFT and stability analysis
  Lukas Wittmann         : regularized MP2, r2SCAN double-hybrids, wr2SCAN        
                                                                         
We gratefully acknowledge several colleagues who have allowed us to      
interface, adapt or use parts of their codes:                            
  Ed Valeev, F. Pavosevic, A. Kumar             : LibInt (2-el integral package), F12 methods 
  Garnet Chan, S. Sharma, J. Yang, R. Olivares  : DMRG                   
  Ulf Ekstrom                                   : XCFun DFT Library      
  Mihaly Kallay                                 : mrcc  (arbitrary order and MRCC methods)
  Frank Weinhold                                : gennbo (NPA and NBO analysis)           
  Simon Mueller                                 : openCOSMO-RS                            
  Christopher J. Cramer and Donald G. Truhlar   : smd solvation model                     
  S Lehtola, MJT Oliveira, MAL Marques          : LibXC Library                           
  Liviu Ungur et al                             : ANISO software                          


 Your calculation uses the libint2 library for the computation of 2-el integrals
 For citations please refer to: http://libint.valeyev.net

 Your ORCA version has been built with support for libXC version: 7.0.0
 For citations please refer to: https://libxc.gitlab.io

 This ORCA versions uses:
   CBLAS   interface :  Fast vector & matrix operations
   LAPACKE interface :  Fast linear algebra routines
   SCALAPACK package :  Parallel linear algebra routines
   Shared memory     :  Shared parallel matrices
   BLAS/LAPACK       :  OpenBLAS 0.3.29  USE64BITINT DYNAMIC_ARCH NO_AFFINITY Zen SINGLE_THREADED
        Core in use  :  Zen
   Copyright (c) 2011-2014, The OpenBLAS Project


  ***********************************
  * Starting time: Wed Sep 10 13:35:49 2025
  * Host name:     wyk-Server
  * Process ID:    2294947
  * Working dir.:  /home/wyk/Documents/code/openQDC/MGMR/singlepointcalc/68/react
  ***********************************

Your calculation utilizes the atom-pairwise dispersion correction
with the Becke-Johnson damping scheme (D3BJ)


Warning: RI is on but no J-basis has been assigned. Assigning Def2/J (nothing to worry about!)
================================================================================

----- Orbital basis set information -----
Your calculation utilizes the basis: def2-SVP
   F. Weigend and R. Ahlrichs, Phys. Chem. Chem. Phys. 7, 3297 (2005).

----- AuxJ basis set information -----
Your calculation utilizes the auxiliary basis: def2/J
   H-Rn: F. Weigend, Phys. Chem. Chem. Phys. 8, 1057 (2006).
   Fr-Lr: K. Eichkorn, F. Weigend, O. Treutler, R. Ahlrichs; Theor. Chem. Acc. 97, 119 (1997).

================================================================================
                                        WARNINGS
                       Please study these warnings very carefully!
================================================================================


================================================================================
                                       INPUT FILE
================================================================================
NAME = orca.inp
|  1> ! B3LYP def2-SVP d3 EnGrad 
|  2> %pal nprocs 6 end 
|  3> *xyz 0 1 
|  4> C   -0.19212759072851 0.74433745524192 0.1865969099088
|  5> C   1.31571703000854 0.95055654890566 0.15064009992389
|  6> C   1.58747307029651 -0.32365749833781 -0.17328330519349
|  7> C   0.12788609163021 -0.75645096327225 -0.18703100516984
|  8> C   -0.91386702222038 0.99510699455757 1.50447609138541
|  9> C   -0.446191481006 -1.28866856779573 -1.49439061850855
| 10> H   -0.71890614711967 1.26056062766868 -0.63744287861974
| 11> H   1.93908264360505 1.83024831801764 0.33929529704134
| 12> H   2.51441608158343 -0.87096601016983 -0.37167883912958
| 13> H   -0.12787050401332 -1.44035177526183 0.64353920486795
| 14> H   -0.41206508482312 0.46897793672418 2.3337456110331
| 15> H   -1.95859914276024 0.64459368793757 1.45948910961203
| 16> H   -0.93225231905515 2.06991581996369 1.75133682695329
| 17> H   -0.02706166363781 -2.27901169187869 -1.73951876486321
| 18> H   -0.21338787906346 -0.60961874125518 -2.33146537537153
| 19> H   -1.54225908269611 -1.39555914104559 -1.4343083538699
| 20> *
| 21> 
| 22>                          ****END OF INPUT****
================================================================================

                     *******************************
                     * Energy+Gradient Calculation *
                     *******************************

---------------------------------
CARTESIAN COORDINATES (ANGSTROEM)
---------------------------------
  C     -0.192128    0.744337    0.186597
  C      1.315717    0.950557    0.150640
  C      1.587473   -0.323657   -0.173283
  C      0.127886   -0.756451   -0.187031
  C     -0.913867    0.995107    1.504476
  C     -0.446191   -1.288669   -1.494391
  H     -0.718906    1.260561   -0.637443
  H      1.939083    1.830248    0.339295
  H      2.514416   -0.870966   -0.371679
  H     -0.127871   -1.440352    0.643539
  H     -0.412065    0.468978    2.333746
  H     -1.958599    0.644594    1.459489
  H     -0.932252    2.069916    1.751337
  H     -0.027062   -2.279012   -1.739519
  H     -0.213388   -0.609619   -2.331465
  H     -1.542259   -1.395559   -1.434308

----------------------------
CARTESIAN COORDINATES (A.U.)
----------------------------
  NO LB      ZA    FRAG     MASS         X           Y           Z
   0 C     6.0000    0    12.011   -0.363069    1.406594    0.352617
   1 C     6.0000    0    12.011    2.486345    1.796292    0.284669
   2 C     6.0000    0    12.011    2.999889   -0.611624   -0.327458
   3 C     6.0000    0    12.011    0.241670   -1.429485   -0.353437
   4 C     6.0000    0    12.011   -1.726958    1.880480    2.843048
   5 C     6.0000    0    12.011   -0.843180   -2.435231   -2.823989
   6 H     1.0000    0     1.008   -1.358536    2.382114   -1.204592
   7 H     1.0000    0     1.008    3.664335    3.458668    0.641175
   8 H     1.0000    0     1.008    4.751558   -1.645887   -0.702371
   9 H     1.0000    0     1.008   -0.241640   -2.721870    1.216113
  10 H     1.0000    0     1.008   -0.778690    0.886240    4.410140
  11 H     1.0000    0     1.008   -3.701216    1.218106    2.758035
  12 H     1.0000    0     1.008   -1.761702    3.911574    3.309547
  13 H     1.0000    0     1.008   -0.051139   -4.306708   -3.287214
  14 H     1.0000    0     1.008   -0.403245   -1.152012   -4.405831
  15 H     1.0000    0     1.008   -2.914447   -2.637225   -2.710450

--------------------------------
INTERNAL COORDINATES (ANGSTROEM)
--------------------------------
 C      0   0   0     0.000000000000     0.00000000     0.00000000
 C      1   0   0     1.522305687785     0.00000000     0.00000000
 C      2   1   0     1.342534601419    94.45206157     0.00000000
 C      3   2   1     1.522462916079    94.46923768   359.71095774
 C      1   2   3     1.523351143298   117.86679509   118.79931208
 C      4   3   2     1.523814226393   117.91832133   118.90116652
 H      1   2   3     1.105903967034   113.01516332   248.96827978
 H      2   1   3     1.094546974898   131.98313141   180.76627718
 H      3   2   1     1.094591586476   133.60758754   179.07968544
 H      4   3   2     1.105883642459   113.00027085   249.02662732
 H      5   1   2     1.102862142831   110.87931339   310.35839651
 H      5   1   2     1.102881956664   111.17373750   190.11758122
 H      5   1   2     1.102947076280   111.21969846    70.18244233
 H      6   4   3     1.102967413553   111.16881130    70.42012084
 H      6   4   3     1.102724050966   110.89505988   310.63383278
 H      6   4   3     1.102905100473   111.19317550   190.31024529

---------------------------
INTERNAL COORDINATES (A.U.)
---------------------------
 C      0   0   0     0.000000000000     0.00000000     0.00000000
 C      1   0   0     2.876740842024     0.00000000     0.00000000
 C      2   1   0     2.537022721996    94.45206157     0.00000000
 C      3   2   1     2.877037960441    94.46923768   359.71095774
 C      1   2   3     2.878716466630   117.86679509   118.79931208
 C      4   3   2     2.879591566856   117.91832133   118.90116652
 H      1   2   3     2.089855628112   113.01516332   248.96827978
 H      2   1   3     2.068394023268   131.98313141   180.76627718
 H      3   2   1     2.068478326933   133.60758754   179.07968544
 H      4   3   2     2.089817220230   113.00027085   249.02662732
 H      5   1   2     2.084107413419   110.87931339   310.35839651
 H      5   1   2     2.084144856138   111.17373750   190.11758122
 H      5   1   2     2.084267914379   111.21969846    70.18244233
 H      6   4   3     2.084306346255   111.16881130    70.42012084
 H      6   4   3     2.083846457614   110.89505988   310.63383278
 H      6   4   3     2.084188591598   111.19317550   190.31024529

---------------------
BASIS SET INFORMATION
---------------------
There are 2 groups of distinct atoms

 Group   1 Type C   : 7s4p1d contracted to 3s2p1d pattern {511/31/1}
 Group   2 Type H   : 4s1p contracted to 2s1p pattern {31/1}

Atom   0C    basis set group =>   1
Atom   1C    basis set group =>   1
Atom   2C    basis set group =>   1
Atom   3C    basis set group =>   1
Atom   4C    basis set group =>   1
Atom   5C    basis set group =>   1
Atom   6H    basis set group =>   2
Atom   7H    basis set group =>   2
Atom   8H    basis set group =>   2
Atom   9H    basis set group =>   2
Atom  10H    basis set group =>   2
Atom  11H    basis set group =>   2
Atom  12H    basis set group =>   2
Atom  13H    basis set group =>   2
Atom  14H    basis set group =>   2
Atom  15H    basis set group =>   2
---------------------------------
AUXILIARY/J BASIS SET INFORMATION
---------------------------------
There are 2 groups of distinct atoms

 Group   1 Type C   : 12s5p4d2f1g contracted to 6s4p3d1f1g pattern {711111/2111/211/2/1}
 Group   2 Type H   : 5s2p1d contracted to 3s1p1d pattern {311/2/1}

Atom   0C    basis set group =>   1
Atom   1C    basis set group =>   1
Atom   2C    basis set group =>   1
Atom   3C    basis set group =>   1
Atom   4C    basis set group =>   1
Atom   5C    basis set group =>   1
Atom   6H    basis set group =>   2
Atom   7H    basis set group =>   2
Atom   8H    basis set group =>   2
Atom   9H    basis set group =>   2
Atom  10H    basis set group =>   2
Atom  11H    basis set group =>   2
Atom  12H    basis set group =>   2
Atom  13H    basis set group =>   2
Atom  14H    basis set group =>   2
Atom  15H    basis set group =>   2


           ************************************************************
           *        Program running with 6 parallel MPI-processes     *
           *              working on a common directory               *
           ************************************************************
------------------------------------------------------------------------------
                             ORCA STARTUP CALCULATIONS
                           -- RI-GTO INTEGRALS CHOSEN --
------------------------------------------------------------------------------
------------------------------------------------------------------------------
                   ___                                                        
                  /   \      - P O W E R E D   B Y -                         
                 /     \                                                     
                 |  |  |   _    _      __       _____    __    __             
                 |  |  |  | |  | |    /  \     |  _  \  |  |  /  |          
                  \  \/   | |  | |   /    \    | | | |  |  | /  /          
                 / \  \   | |__| |  /  /\  \   | |_| |  |  |/  /          
                |  |  |   |  __  | /  /__\  \  |    /   |      \           
                |  |  |   | |  | | |   __   |  |    \   |  |\   \          
                \     /   | |  | | |  |  |  |  | |\  \  |  | \   \       
                 \___/    |_|  |_| |__|  |__|  |_| \__\ |__|  \__/        
                                                                              
                      - O R C A' S   B I G   F R I E N D -                    
                                      &                                       
                       - I N T E G R A L  F E E D E R -                       
                                                                              
 v1 FN, 2020, v2 2021, v3 2022-2024                                           
------------------------------------------------------------------------------


----------------------
SHARK INTEGRAL PACKAGE
----------------------

Number of atoms                             ...     16
Number of basis functions                   ...    134
Number of shells                            ...     66
Maximum angular momentum                    ...      2
Integral batch strategy                     ... SHARK/LIBINT Hybrid
RI-J (if used) integral strategy            ... SPLIT-RIJ (Revised 2003 algorithm where possible)
Printlevel                                  ...      1
Contraction scheme used                     ... SEGMENTED contraction
Prescreening option                         ... SCHWARTZ
   Thresh                                   ... 2.500e-11
   Tcut                                     ... 2.500e-12
   Tpresel                                  ... 2.500e-12 
Coulomb Range Separation                    ... NOT USED
Exchange Range Separation                   ... NOT USED
Multipole approximations                    ... NOT USED
Finite Nucleus Model                        ... NOT USED
CABS basis                                  ... NOT available
Auxiliary Coulomb fitting basis             ... AVAILABLE
   # of basis functions in Aux-J            ...    404
   # of shells in Aux-J                     ...    140
   Maximum angular momentum in Aux-J        ...      4
Auxiliary J/K fitting basis                 ... NOT available
Auxiliary Correlation fitting basis         ... NOT available
Auxiliary 'external' fitting basis          ... NOT available

Checking pre-screening integrals            ... done (  0.0 sec) Dimension = 66
   => SHARK Basis and OBASIS are compatible. Storing Pre-screening
Shell pair information
Shell pair cut-off parameter TPreSel        ...   2.5e-12
Total number of shell pairs                 ...      2211
Shell pairs after pre-screening             ...      2168
Total number of primitive shell pairs       ...      7611
Primitive shell pairs kept                  ...      5822
          la=0 lb=0:    728 shell pairs
          la=1 lb=0:    818 shell pairs
          la=1 lb=1:    243 shell pairs
          la=2 lb=0:    226 shell pairs
          la=2 lb=1:    132 shell pairs
          la=2 lb=2:     21 shell pairs

Checking whether 4 symmetric matrices of dimension 134 fit in memory
:Max Core in MB      =   4096.00
 MB in use           =      6.09
 MB left             =   4089.91
 MB needed           =      0.28
 Data fit in memory  = YES
Calculating RI/J V-Matrix + Cholesky decomp.... done (  0.0 sec)
Calculating Nuclear repulsion               ... done (  0.0 sec) ENN=    231.189283140323 Eh

Diagonalization of the overlap matrix:
Smallest eigenvalue                        ... 4.114e-04
Time for diagonalization                   ...    0.002 sec
Threshold for overlap eigenvalues          ... 1.000e-07
Number of eigenvalues below threshold      ... 0
Time for construction of square roots      ...    0.001 sec
Total time needed                          ...    0.004 sec

-------------------
DFT GRID GENERATION
-------------------

General Integration Accuracy     IntAcc      ... 4.388
Radial Grid Type                 RadialGrid  ... OptM3 with GC (2021)
Angular Grid (max. ang.)         AngularGrid ... 4 (Lebedev-302)
Angular grid pruning method      GridPruning ... 4 (adaptive)
Weight generation scheme         WeightScheme... mBecke (2022)
Basis function cutoff            BFCut       ... 1.0000e-11
Integration weight cutoff        WCut        ... 1.0000e-14
Partially contracted basis set               ... off
Rotationally invariant grid construction     ... off
Angular grids for H and He will be reduced by one unit

Total number of grid points                  ...    68217
Total number of batches                      ...     1075
Average number of points per batch           ...       63
Average number of grid points per atom       ...     4264

--------------------
COSX GRID GENERATION
--------------------

GRIDX 1
-------
General Integration Accuracy     IntAcc      ... 3.816
Radial Grid Type                 RadialGrid  ... OptM3 with GC (2021)
Angular Grid (max. ang.)         AngularGrid ... 1 (Lebedev-50)
Angular grid pruning method      GridPruning ... 4 (adaptive)
Weight generation scheme         WeightScheme... mBecke (2022)
Basis function cutoff            BFCut       ... 1.0000e-11
Integration weight cutoff        WCut        ... 1.0000e-14
Partially contracted basis set               ... on
Rotationally invariant grid construction     ... off
Angular grids for H and He will be reduced by one unit

Total number of grid points                  ...     8775
Total number of batches                      ...       78
Average number of points per batch           ...      112
Average number of grid points per atom       ...      548
UseSFitting                                  ... on

GRIDX 2
-------
General Integration Accuracy     IntAcc      ... 4.020
Radial Grid Type                 RadialGrid  ... OptM3 with GC (2021)
Angular Grid (max. ang.)         AngularGrid ... 2 (Lebedev-110)
Angular grid pruning method      GridPruning ... 4 (adaptive)
Weight generation scheme         WeightScheme... mBecke (2022)
Basis function cutoff            BFCut       ... 1.0000e-11
Integration weight cutoff        WCut        ... 1.0000e-14
Partially contracted basis set               ... on
Rotationally invariant grid construction     ... off
Angular grids for H and He will be reduced by one unit

Total number of grid points                  ...    18413
Total number of batches                      ...      152
Average number of points per batch           ...      121
Average number of grid points per atom       ...     1151
UseSFitting                                  ... on

GRIDX 3
-------
General Integration Accuracy     IntAcc      ... 4.338
Radial Grid Type                 RadialGrid  ... OptM3 with GC (2021)
Angular Grid (max. ang.)         AngularGrid ... 3 (Lebedev-194)
Angular grid pruning method      GridPruning ... 4 (adaptive)
Weight generation scheme         WeightScheme... mBecke (2022)
Basis function cutoff            BFCut       ... 1.0000e-11
Integration weight cutoff        WCut        ... 1.0000e-14
Partially contracted basis set               ... on
Rotationally invariant grid construction     ... off
Angular grids for H and He will be reduced by one unit

Total number of grid points                  ...    40237
Total number of batches                      ...      322
Average number of points per batch           ...      124
Average number of grid points per atom       ...     2515
UseSFitting                                  ... on
Grids setup in   0.8 sec
Initializing property integral containers    ... done (  0.0 sec)

SHARK setup successfully completed in   0.9 seconds

Maximum memory used throughout the entire STARTUP-calculation: 18.2 MB


           ************************************************************
           *        Program running with 6 parallel MPI-processes     *
           *              working on a common directory               *
           ************************************************************
-------------------------------------------------------------------------------
                                 ORCA GUESS
                   Start orbitals & Density for SCF / CASSCF
-------------------------------------------------------------------------------

------------
SCF SETTINGS
------------
Hamiltonian:
 Density Functional     Method          .... DFT(GTOs)
 Exchange Functional    Exchange        .... B88
   X-Alpha parameter    XAlpha          ....  0.666667
   Becke's b parameter  XBeta           ....  0.004200
 Correlation Functional Correlation     .... LYP
 LDA part of GGA corr.  LDAOpt          .... VWN-5
 Gradients option       PostSCFGGA      .... off
 Hybrid DFT is turned on
   Fraction HF Exchange ScalHFX         ....  0.200000
   Scaling of DF-GGA-X  ScalDFX         ....  0.720000
   Scaling of DF-GGA-C  ScalDFC         ....  0.810000
   Scaling of DF-LDA-C  ScalLDAC        ....  1.000000
   Perturbative correction              ....  0.000000
   NL short-range parameter             ....  4.800000
 RI-approximation to the Coulomb term is turned on
   Number of AuxJ basis functions       .... 404
   RIJ-COSX (HFX calculated with COS-X)).... on


General Settings:
 Integral files         IntName         .... orca
 Hartree-Fock type      HFTyp           .... RHF
 Total Charge           Charge          ....    0
 Multiplicity           Mult            ....    1
 Number of Electrons    NEL             ....   46
 Basis Dimension        Dim             ....  134
 Nuclear Repulsion      ENuc            ....    231.1892831403 Eh

Convergence Acceleration:
 AO-DIIS                CNVDIIS         .... on
   Start iteration      DIISMaxIt       ....    12
   Startup error        DIISStart       ....  0.200000
   # of expansion vecs  DIISMaxEq       ....     5
   Bias factor          DIISBfac        ....   1.050
   Max. coefficient     DIISMaxC        ....  10.000
 MO-DIIS                CNVKDIIS        .... off
 Trust-Rad. Augm. Hess. CNVTRAH         .... auto
   Auto Start mean grad. ratio tolernc. ....  1.125000
   Auto Start start iteration           ....    50
   Auto Start num. interpolation iter.  ....    10
   Max. Number of Micro iterations      ....    24
   Max. Number of Macro iterations      .... Maxiter - #DIIS iter
   Number of Davidson start vectors     ....     2
   Converg. threshold    (grad. norm)   ....   1.000e-05
   Grad. Scal. Fac. for Micro threshold ....   0.100
   Minimum threshold for Micro iter.    ....   1.000e-02
   NR start threshold (gradient norm)   ....   1.000e-04
   Initial trust radius                 ....   0.400
   Minimum AH scaling param. (alpha)    ....   1.000
   Maximum AH scaling param. (alpha)    .... 1000.000
   Quad. conv. algorithm                .... NR
   White noise on init. David. guess    .... on
   Maximum white noise                  ....   0.010
   Pseudo random numbers                .... off
   Inactive MOs                         .... canonical
   Orbital update algorithm             .... Taylor
   Preconditioner                       .... Diag
   Full preconditioner red. dimension   ....   250
 SOSCF                 CNVSOSCF           .... on
   Start iteration     SOSCFMaxIt         ....   150
   Startup grad/error  SOSCFStart         ....  0.003300
   Hessian update      SOSCFHessUp        .... L-BFGS
   Autom. constraints  SOSCFAutoConstrain .... off
 Level Shifting         CNVShift        .... on
   Level shift para.    LevelShift      ....    0.2500
   Turn off err/grad.   ShiftErr        ....    0.0010
 Zerner damping         CNVZerner       .... off
 Static damping         CNVDamp         .... on
   Fraction old density DampFac         ....    0.7000
   Max. Damping (<1)    DampMax         ....    0.9800
   Min. Damping (>=0)   DampMin         ....    0.0000
   Turn off err/grad.   DampErr         ....    0.1000

SCF Procedure:
 Maximum # iterations   MaxIter         ....   125
 SCF integral mode      SCFMode         .... Direct
   Integral package                     .... SHARK and LIBINT hybrid scheme
 Reset frequency        DirectResetFreq ....    20
 Integral Threshold     Thresh          ....  2.500e-11 Eh
 Primitive CutOff       TCut            ....  2.500e-12 Eh

Convergence Tolerance:
 Convergence Check Mode ConvCheckMode   .... Total+1el-Energy
 Convergence forced     ConvForced      .... 0
 Energy Change          TolE            ....  1.000e-08 Eh
 1-El. energy change                    ....  1.000e-05 Eh
 Orbital Gradient       TolG            ....  1.000e-05
 Orbital Rotation angle TolX            ....  1.000e-05
 DIIS Error             TolErr          ....  5.000e-07

------------------------------
INITIAL GUESS: MODEL POTENTIAL
------------------------------
Loading Hartree-Fock densities                     ... done
Calculating cut-offs                               ... done
Initializing the effective Hamiltonian             ... done
Setting up the integral package (SHARK)            ... done
Starting the Coulomb interaction                   ... done (   0.0 sec)
Making the grid                                    ... done (   0.1 sec)
Mapping shells                                     ... done
Starting the XC term evaluation                    ... done (   0.0 sec)
  promolecular density results
     # of electrons  =     45.999246898
     EX              =    -33.784509048
     EC              =     -1.474283947
     EX+EC           =    -35.258792995
Transforming the Hamiltonian                       ... done (   0.0 sec)
Diagonalizing the Hamiltonian                      ... done (   0.0 sec)
Back transforming the eigenvectors                 ... done (   0.0 sec)
Now organizing SCF variables                       ... done
                      ------------------
                      INITIAL GUESS DONE (   0.2 sec)
                      ------------------
             **** ENERGY FILE WAS UPDATED (orca.en.tmp) ****
Finished Guess after   0.3 sec
Maximum memory used throughout the entire GUESS-calculation: 8.6 MB


           ************************************************************
           *        Program running with 6 parallel MPI-processes     *
           *              working on a common directory               *
           ************************************************************

-------------------------------------------------------------------------------------------
                                      ORCA LEAN-SCF
                              memory conserving SCF solver
-------------------------------------------------------------------------------------------

----------------------------------------D-I-I-S--------------------------------------------
Iteration    Energy (Eh)           Delta-E    RMSDP     MaxDP     DIISErr   Damp  Time(sec)
-------------------------------------------------------------------------------------------
               ***  Starting incremental Fock matrix formation  ***
    1    -234.0818054264621821     0.00e+00  9.37e-03  7.71e-02  1.68e-01  0.700   0.8
    2    -234.1684000003473045    -8.66e-02  6.71e-03  4.76e-02  8.88e-02  0.700   0.5
                               ***Turning on AO-DIIS***
    3    -234.2044772706146034    -3.61e-02  2.74e-03  1.36e-02  3.43e-02  0.700   0.5
    4    -234.2250425966317096    -2.06e-02  4.86e-03  3.46e-02  1.67e-02  0.000   0.5
    5    -234.2693951683559987    -4.44e-02  8.14e-04  3.97e-03  5.91e-03  0.000   0.5
                              *** Initializing SOSCF ***
---------------------------------------S-O-S-C-F--------------------------------------
Iteration    Energy (Eh)           Delta-E    RMSDP     MaxDP     MaxGrad    Time(sec)
--------------------------------------------------------------------------------------
    6    -234.2696833077456802    -2.88e-04  3.30e-04  1.68e-03  1.37e-03     0.5
               *** Restarting incremental Fock matrix formation ***
    7    -234.2697218267042842    -3.85e-05  2.20e-04  1.16e-03  2.09e-04     0.9
    8    -234.2697224600150037    -6.33e-07  5.50e-05  5.13e-04  1.76e-04     0.7
    9    -234.2697243493446138    -1.89e-06  1.43e-05  8.28e-05  1.54e-05     0.7
   10    -234.2697243465921417     2.75e-09  4.66e-06  3.56e-05  1.37e-05     0.5
                 **** Energy Check signals convergence ****

               *****************************************************
               *                     SUCCESS                       *
               *           SCF CONVERGED AFTER  10 CYCLES          *
               *****************************************************

Recomputing exchange energy using gridx3       ... done (    1.209 sec)
Old exchange energy                            :     -6.911076442 Eh
New exchange energy                            :     -6.911027856 Eh
Exchange energy change after final integration :      0.000048586 Eh
Total energy after final integration           :   -234.269675772 Eh
             **** ENERGY FILE WAS UPDATED (orca.en.tmp) ****

----------------
TOTAL SCF ENERGY
----------------

Total Energy       :       -234.26967577176387 Eh           -6374.80197 eV

Components:
Nuclear Repulsion  :        231.18928314032260 Eh            6290.98022 eV
Electronic Energy  :       -465.45900749818253 Eh          -12665.78351 eV
One Electron Energy:       -771.83932598387582 Eh          -21002.81582 eV
Two Electron Energy:        306.38031848569329 Eh            8337.03231 eV

Virial components:
Potential Energy   :       -465.72279856101204 Eh          -12672.96163 eV
Kinetic Energy     :        231.45312278924817 Eh            6298.15966 eV
Virial Ratio       :          2.01216899970315

DFT components:
N(Alpha)           :       23.000013269617 electrons
N(Beta)            :       23.000013269617 electrons
N(Total)           :       46.000026539233 electrons
E(X)               :      -27.384485199629 Eh       
E(C)               :       -1.750360147253 Eh       
E(XC)              :      -29.134845346882 Eh       

---------------
SCF CONVERGENCE
---------------

  Last Energy change         ...   -2.7525e-09  Tolerance :   1.0000e-08
  Last MAX-Density change    ...    3.5591e-05  Tolerance :   1.0000e-07
  Last RMS-Density change    ...    4.6580e-06  Tolerance :   5.0000e-09
  Last DIIS Error            ...    1.3709e-03  Tolerance :   5.0000e-07
  Last Orbital Gradient      ...    1.3736e-05  Tolerance :   1.0000e-05
  Last Orbital Rotation      ...    1.2443e-05  Tolerance :   1.0000e-05


----------------
ORBITAL ENERGIES
----------------

  NO   OCC          E(Eh)            E(eV) 
   0   2.0000     -10.185319      -277.1566 
   1   2.0000     -10.185312      -277.1564 
   2   2.0000     -10.178595      -276.9736 
   3   2.0000     -10.177932      -276.9556 
   4   2.0000     -10.174849      -276.8717 
   5   2.0000     -10.174832      -276.8712 
   6   2.0000      -0.851645       -23.1744 
   7   2.0000      -0.718610       -19.5544 
   8   2.0000      -0.706415       -19.2225 
   9   2.0000      -0.595750       -16.2112 
  10   2.0000      -0.591735       -16.1019 
  11   2.0000      -0.502245       -13.6668 
  12   2.0000      -0.481795       -13.1103 
  13   2.0000      -0.439067       -11.9476 
  14   2.0000      -0.427959       -11.6454 
  15   2.0000      -0.401957       -10.9378 
  16   2.0000      -0.393055       -10.6956 
  17   2.0000      -0.368619       -10.0306 
  18   2.0000      -0.351752        -9.5716 
  19   2.0000      -0.336035        -9.1440 
  20   2.0000      -0.299283        -8.1439 
  21   2.0000      -0.297240        -8.0883 
  22   2.0000      -0.247116        -6.7244 
  23   0.0000       0.013527         0.3681 
  24   0.0000       0.073022         1.9870 
  25   0.0000       0.088217         2.4005 
  26   0.0000       0.097863         2.6630 
  27   0.0000       0.105468         2.8699 
  28   0.0000       0.131266         3.5719 
  29   0.0000       0.131385         3.5752 
  30   0.0000       0.140620         3.8265 
  31   0.0000       0.145222         3.9517 
  32   0.0000       0.147504         4.0138 
  33   0.0000       0.164217         4.4686 
*Only the first 10 virtual orbitals were printed.

                    ********************************
                    * MULLIKEN POPULATION ANALYSIS *
                    ********************************

-----------------------
MULLIKEN ATOMIC CHARGES
-----------------------
   0 C :   -0.028558
   1 C :   -0.039127
   2 C :   -0.038619
   3 C :   -0.030513
   4 C :    0.068530
   5 C :    0.069340
   6 H :   -0.003605
   7 H :   -0.019197
   8 H :   -0.019186
   9 H :   -0.003535
  10 H :    0.005286
  11 H :    0.009065
  12 H :    0.007945
  13 H :    0.007840
  14 H :    0.005196
  15 H :    0.009138
Sum of atomic charges:   -0.0000000

--------------------------------
MULLIKEN REDUCED ORBITAL CHARGES
--------------------------------
  0 C s       :     3.054146  s :     3.054146
      pz      :     0.988226  p :     2.928632
      px      :     0.951404
      py      :     0.989001
      dz2     :     0.008303  d :     0.045780
      dxz     :     0.011000
      dyz     :     0.007450
      dx2y2   :     0.011087
      dxy     :     0.007940

  1 C s       :     3.311655  s :     3.311655
      pz      :     0.973227  p :     2.689511
      px      :     0.903301
      py      :     0.812983
      dz2     :     0.003377  d :     0.037961
      dxz     :     0.003296
      dyz     :     0.006139
      dx2y2   :     0.011900
      dxy     :     0.013248

  2 C s       :     3.311299  s :     3.311299
      pz      :     0.972863  p :     2.689354
      px      :     0.819251
      py      :     0.897239
      dz2     :     0.003353  d :     0.037966
      dxz     :     0.003398
      dyz     :     0.006089
      dx2y2   :     0.011935
      dxy     :     0.013191

  3 C s       :     3.055315  s :     3.055315
      pz      :     0.988781  p :     2.929444
      px      :     0.941661
      py      :     0.999003
      dz2     :     0.008253  d :     0.045754
      dxz     :     0.007867
      dyz     :     0.010557
      dx2y2   :     0.011328
      dxy     :     0.007750

  4 C s       :     2.967338  s :     2.967338
      pz      :     0.973818  p :     2.935561
      px      :     0.975562
      py      :     0.986181
      dz2     :     0.007223  d :     0.028571
      dxz     :     0.005612
      dyz     :     0.005236
      dx2y2   :     0.007646
      dxy     :     0.002854

  5 C s       :     2.966632  s :     2.966632
      pz      :     0.974440  p :     2.935475
      px      :     0.981741
      py      :     0.979294
      dz2     :     0.007204  d :     0.028554
      dxz     :     0.003386
      dyz     :     0.007443
      dx2y2   :     0.007381
      dxy     :     0.003140

  6 H s       :     0.982608  s :     0.982608
      pz      :     0.009068  p :     0.020997
      px      :     0.006002
      py      :     0.005926

  7 H s       :     0.996491  s :     0.996491
      pz      :     0.004822  p :     0.022707
      px      :     0.007041
      py      :     0.010843

  8 H s       :     0.996484  s :     0.996484
      pz      :     0.004858  p :     0.022702
      px      :     0.011558
      py      :     0.006286

  9 H s       :     0.982538  s :     0.982538
      pz      :     0.009155  p :     0.020997
      px      :     0.004356
      py      :     0.007486

 10 H s       :     0.971836  s :     0.971836
      pz      :     0.009413  p :     0.022878
      px      :     0.006509
      py      :     0.006955

 11 H s       :     0.967917  s :     0.967917
      pz      :     0.004238  p :     0.023018
      px      :     0.012809
      py      :     0.005971

 12 H s       :     0.969047  s :     0.969047
      pz      :     0.004781  p :     0.023008
      px      :     0.004904
      py      :     0.013323

 13 H s       :     0.969150  s :     0.969150
      pz      :     0.004789  p :     0.023011
      px      :     0.006168
      py      :     0.012053

 14 H s       :     0.971926  s :     0.971926
      pz      :     0.009525  p :     0.022878
      px      :     0.005214
      py      :     0.008140

 15 H s       :     0.967845  s :     0.967845
      pz      :     0.004253  p :     0.023017
      px      :     0.013649
      py      :     0.005115



                     *******************************
                     * LOEWDIN POPULATION ANALYSIS *
                     *******************************

----------------------
LOEWDIN ATOMIC CHARGES
----------------------
   0 C :   -0.018153
   1 C :   -0.024130
   2 C :   -0.024072
   3 C :   -0.018250
   4 C :   -0.052115
   5 C :   -0.052113
   6 H :    0.017714
   7 H :    0.009560
   8 H :    0.009521
   9 H :    0.017734
  10 H :    0.021468
  11 H :    0.022797
  12 H :    0.022882
  13 H :    0.022906
  14 H :    0.021439
  15 H :    0.022811

-------------------------------
LOEWDIN REDUCED ORBITAL CHARGES
-------------------------------
  0 C s       :     2.852704  s :     2.852704
      pz      :     1.039246  p :     3.058713
      px      :     1.009010
      py      :     1.010458
      dz2     :     0.019530  d :     0.106736
      dxz     :     0.026187
      dyz     :     0.016690
      dx2y2   :     0.028506
      dxy     :     0.015823

  1 C s       :     2.893035  s :     2.893035
      pz      :     0.967655  p :     3.038436
      px      :     1.014100
      py      :     1.056681
      dz2     :     0.007392  d :     0.092659
      dxz     :     0.006790
      dyz     :     0.012174
      dx2y2   :     0.034602
      dxy     :     0.031702

  2 C s       :     2.893074  s :     2.893074
      pz      :     0.967706  p :     3.038321
      px      :     1.001925
      py      :     1.068690
      dz2     :     0.007324  d :     0.092677
      dxz     :     0.006558
      dyz     :     0.012534
      dx2y2   :     0.032135
      dxy     :     0.034125

  3 C s       :     2.852832  s :     2.852832
      pz      :     1.039444  p :     3.058762
      px      :     1.017831
      py      :     1.001486
      dz2     :     0.019333  d :     0.106656
      dxz     :     0.017350
      dyz     :     0.025588
      dx2y2   :     0.028007
      dxy     :     0.016379

  4 C s       :     2.843123  s :     2.843123
      pz      :     1.032998  p :     3.135912
      px      :     1.046188
      py      :     1.056727
      dz2     :     0.018092  d :     0.073080
      dxz     :     0.015210
      dyz     :     0.013053
      dx2y2   :     0.019534
      dxy     :     0.007192

  5 C s       :     2.843155  s :     2.843155
      pz      :     1.033526  p :     3.135928
      px      :     1.050536
      py      :     1.051866
      dz2     :     0.017981  d :     0.073030
      dxz     :     0.008866
      dyz     :     0.019401
      dx2y2   :     0.018888
      dxy     :     0.007894

  6 H s       :     0.916191  s :     0.916191
      pz      :     0.027847  p :     0.066095
      px      :     0.019124
      py      :     0.019124

  7 H s       :     0.921078  s :     0.921078
      pz      :     0.014730  p :     0.069361
      px      :     0.023448
      py      :     0.031183

  8 H s       :     0.921127  s :     0.921127
      pz      :     0.014828  p :     0.069352
      px      :     0.035923
      py      :     0.018601

  9 H s       :     0.916160  s :     0.916160
      pz      :     0.028092  p :     0.066106
      px      :     0.014340
      py      :     0.023674

 10 H s       :     0.914945  s :     0.914945
      pz      :     0.028062  p :     0.063586
      px      :     0.017446
      py      :     0.018079

 11 H s       :     0.913621  s :     0.913621
      pz      :     0.012287  p :     0.063582
      px      :     0.036647
      py      :     0.014648

 12 H s       :     0.913408  s :     0.913408
      pz      :     0.013898  p :     0.063710
      px      :     0.012078
      py      :     0.037733

 13 H s       :     0.913382  s :     0.913382
      pz      :     0.013872  p :     0.063712
      px      :     0.015869
      py      :     0.033971

 14 H s       :     0.914951  s :     0.914951
      pz      :     0.028376  p :     0.063610
      px      :     0.012997
      py      :     0.022237

 15 H s       :     0.913611  s :     0.913611
      pz      :     0.012305  p :     0.063578
      px      :     0.038992
      py      :     0.012281



                      *****************************
                      * MAYER POPULATION ANALYSIS *
                      *****************************

  NA   - Mulliken gross atomic population
  ZA   - Total nuclear charge
  QA   - Mulliken gross atomic charge
  VA   - Mayer's total valence
  BVA  - Mayer's bonded valence
  FA   - Mayer's free valence

  ATOM       NA         ZA         QA         VA         BVA        FA
  0 C      6.0286     6.0000    -0.0286     4.0114     4.0114    -0.0000
  1 C      6.0391     6.0000    -0.0391     3.7922     3.7922    -0.0000
  2 C      6.0386     6.0000    -0.0386     3.7918     3.7918    -0.0000
  3 C      6.0305     6.0000    -0.0305     4.0131     4.0131    -0.0000
  4 C      5.9315     6.0000     0.0685     3.9434     3.9434    -0.0000
  5 C      5.9307     6.0000     0.0693     3.9437     3.9437    -0.0000
  6 H      1.0036     1.0000    -0.0036     0.9791     0.9791    -0.0000
  7 H      1.0192     1.0000    -0.0192     0.9834     0.9834    -0.0000
  8 H      1.0192     1.0000    -0.0192     0.9833     0.9833     0.0000
  9 H      1.0035     1.0000    -0.0035     0.9791     0.9791    -0.0000
 10 H      0.9947     1.0000     0.0053     0.9939     0.9939    -0.0000
 11 H      0.9909     1.0000     0.0091     0.9838     0.9838     0.0000
 12 H      0.9921     1.0000     0.0079     0.9856     0.9856     0.0000
 13 H      0.9922     1.0000     0.0078     0.9855     0.9855    -0.0000
 14 H      0.9948     1.0000     0.0052     0.9938     0.9938     0.0000
 15 H      0.9909     1.0000     0.0091     0.9838     0.9838     0.0000

  Mayer bond orders larger than 0.100000
B(  0-C ,  1-C ) :   0.9998 B(  0-C ,  3-C ) :   1.0241 B(  0-C ,  4-C ) :   1.0568 
B(  0-C ,  6-H ) :   0.8970 B(  1-C ,  2-C ) :   1.7813 B(  1-C ,  7-H ) :   1.0276 
B(  2-C ,  3-C ) :   1.0000 B(  2-C ,  8-H ) :   1.0275 B(  3-C ,  5-C ) :   1.0575 
B(  3-C ,  9-H ) :   0.8969 B(  4-C , 10-H ) :   0.9618 B(  4-C , 11-H ) :   0.9642 
B(  4-C , 12-H ) :   0.9633 B(  5-C , 13-H ) :   0.9631 B(  5-C , 14-H ) :   0.9617 
B(  5-C , 15-H ) :   0.9642 

-------
TIMINGS
-------

Total SCF time: 0 days 0 hours 0 min 7 sec 

Total time                  ....       7.983 sec
Sum of individual times     ....       7.437 sec  ( 93.2%)

SCF preparation             ....       0.174 sec  (  2.2%)
Fock matrix formation       ....       7.065 sec  ( 88.5%)
  Startup                   ....       0.005 sec  (  0.1% of F)
  Split-RI-J                ....       0.589 sec  (  8.3% of F)
  Chain of spheres X        ....       5.462 sec  ( 77.3% of F)
  XC integration            ....       1.408 sec  ( 19.9% of F)
    XC Preparation          ....       0.000 sec  (  0.0% of XC)
    Basis function eval.    ....       0.415 sec  ( 29.5% of XC)
    Density eval.           ....       0.248 sec  ( 17.6% of XC)
    XC-Functional eval.     ....       0.076 sec  (  5.4% of XC)
    XC-Potential eval.      ....       0.293 sec  ( 20.8% of XC)
Diagonalization             ....       0.000 sec  (  0.0%)
Density matrix formation    ....       0.024 sec  (  0.3%)
Total Energy calculation    ....       0.013 sec  (  0.2%)
Population analysis         ....       0.014 sec  (  0.2%)
Orbital Transformation      ....       0.017 sec  (  0.2%)
Orbital Orthonormalization  ....       0.000 sec  (  0.0%)
DIIS solution               ....       0.085 sec  (  1.1%)
SOSCF solution              ....       0.045 sec  (  0.6%)
Finished LeanSCF after   8.0 sec

Maximum memory used throughout the entire LEANSCF-calculation: 12.1 MB


-------------------------------------------------------------------------------
                          DFT DISPERSION CORRECTION                            
                                                                               
                              DFTD3 V3.1  Rev 1                                
                          USING Becke-Johnson damping                          
-------------------------------------------------------------------------------
The B3LYP functional is recognized
Active option DFTDOPT                   ...         4   

molecular C6(AA) [au] = 1971.669660 


            DFT-D V3
 parameters
 s6 scaling factor         :     1.0000 
 a1 scaling factor         :     0.3981 
 s8 scaling factor         :     1.9889 
 a2 scaling factor         :     4.4211 
 ad hoc parameters k1-k3   :    16.0000     1.3333    -4.0000 

 Edisp/kcal,au: -13.583381485374  -0.021646493954 
 E6   /kcal   :  -6.564456325 
 E8   /kcal   :  -7.018925160 
 % E8         :  51.672885485 

-------------------------   ----------------
Dispersion correction           -0.021646494
-------------------------   ----------------


-------------------------   --------------------
FINAL SINGLE POINT ENERGY      -234.291322265718
-------------------------   --------------------



           ************************************************************
           *        Program running with 6 parallel MPI-processes     *
           *              working on a common directory               *
           ************************************************************
------------------------------------------------------------------------------
                         ORCA SCF GRADIENT CALCULATION
------------------------------------------------------------------------------

Nuc. rep. gradient        (SHARK) ... done (  0.0 sec)
HCore & Overlap gradient  (SHARK) ... done (  0.0 sec)
Split-RIJ-J gradient      (SHARK) ... done (  0.3 sec)
done (  4.7 sec)
XC gradient                       ... done (  1.0 sec)
Dispersion correction             ... done (  0.0 sec)

-------------------
DISPERSION GRADIENT
-------------------

   1   C   :    0.000710088   -0.000165581   -0.000013920
   2   C   :   -0.000031732   -0.000322750   -0.000082125
   3   C   :   -0.000163006    0.000283508    0.000083958
   4   C   :    0.000577286    0.000440970    0.000003732
   5   C   :   -0.000310093    0.000286113    0.000411462
   6   C   :   -0.000171294   -0.000390562   -0.000408165
   7   H   :   -0.000137983    0.000255796   -0.000105304
   8   H   :    0.000233040    0.000159626   -0.000019966
   9   H   :    0.000278182   -0.000049440    0.000016023
  10   H   :   -0.000019089   -0.000288963    0.000106523
  11   H   :   -0.000148433    0.000061008    0.000338392
  12   H   :   -0.000257557    0.000104881    0.000210275
  13   H   :   -0.000166477    0.000172476    0.000188910
  14   H   :   -0.000083701   -0.000226405   -0.000186285
  15   H   :   -0.000114551   -0.000118574   -0.000336508
  16   H   :   -0.000194681   -0.000202102   -0.000207001

Difference to translation invariance:
           :   -0.0000000000    0.0000000000    0.0000000000

Difference to rotation invariance:
           :    0.0000000000    0.0000000000   -0.0000000000

Norm of the Dispersion gradient    ...    0.0017442099
RMS gradient                       ...    0.0002517550
MAX gradient                       ...    0.0007100881

------------------
CARTESIAN GRADIENT
------------------

   1   C   :    0.000025264    0.000037021    0.000057352
   2   C   :   -0.000095836    0.000010183   -0.000059899
   3   C   :   -0.000048100    0.000211439    0.000061281
   4   C   :    0.000061835   -0.000056160    0.000096597
   5   C   :    0.000080336   -0.000005592   -0.000141488
   6   C   :   -0.000145908    0.000054261   -0.000062023
   7   H   :   -0.000002223    0.000019080    0.000019347
   8   H   :    0.000025036   -0.000048263    0.000012777
   9   H   :   -0.000018949   -0.000037238    0.000013611
  10   H   :   -0.000009031   -0.000027591   -0.000044231
  11   H   :    0.000002886   -0.000070311    0.000012102
  12   H   :    0.000034978   -0.000014930   -0.000000484
  13   H   :    0.000030576    0.000017009    0.000001281
  14   H   :    0.000018257   -0.000040053    0.000004130
  15   H   :    0.000028585   -0.000028720    0.000029793
  16   H   :    0.000012294   -0.000020134   -0.000000147

Difference to translation invariance:
           :    0.0000000000    0.0000000000    0.0000000000

Difference to rotation invariance:
           :    0.0000802712    0.0002198538   -0.0000928463

Norm of the Cartesian gradient     ...    0.0004015556
RMS gradient                       ...    0.0000579596
MAX gradient                       ...    0.0002114385

-------
TIMINGS
-------

Total SCF gradient time     ....        5.979 sec

Densities                   ....       0.000 sec  (  0.0%)
One electron gradient       ....       0.043 sec  (  0.7%)
RI-J Coulomb gradient       ....       0.258 sec  (  4.3%)
COSX gradient               ....       4.667 sec  ( 78.0%)
XC gradient                 ....       0.961 sec  ( 16.1%)

Maximum memory used throughout the entire SCFGRAD-calculation: 28.6 MB


           ************************************************************
           *        Program running with 6 parallel MPI-processes     *
           *              working on a common directory               *
           ************************************************************

------------------------------------------------------------------------------
                              ORCA PROPERTY CALCULATIONS
------------------------------------------------------------------------------

GBWName                                 ... orca.gbw
Number of atoms                         ...     16
Number of basis functions               ...    134
Max core memory                         ...   4096 MB

Electric properties:
Dipole moment                           ... YES
Quadrupole moment                       ...  NO
Static polarizability (Dipole/Dipole)   ...  NO
Static polarizability (Dipole/Quad.)    ...  NO
Static polarizability (Quad./Quad.)     ...  NO
Static polarizability (Velocity)        ...  NO
Static hyperpolarizability              ...  NO

Atomic electric properties:
Dipole moment                           ...  NO
Quadrupole moment                       ...  NO
Static polarizability                   ...  NO

Choice of electric origin               ... Center of mass
Position of electric origin             ...     0.374334     0.081308    -0.003288

General magnetic properties:
Magnetizability                         ...  NO

EPR properties:
g-Tensor (aka g-matrix)                 ...  NO
Zero-Field splitting spin-orbit         ...  NO
Zero-field splitting spin-spin          ...  NO
Hyperfine couplings                     ...  NO (   0 nuclei)
Quadrupole couplings                    ...  NO (   0 nuclei)
Contact density                         ...  NO (   0 nuclei)

NMR properties:
Chemical shifts                         ...  NO (   0 nuclei)
Spin-rotation constants                 ...  NO (   0 nuclei)
Spin-spin couplings                     ...  NO (   0 nuclei,    0 pairs)

Choice of magnetic origin               ... GIAO
Position of magnetic origin             ...     0.000000     0.000000     0.000000

Properties with geometric perturbations:
SCF Hessian                             ...  NO
IR spectrum                             ...  NO
VCD spectrum                            ...  NO
X-ray spectroscopy properties:
SCF XES/XAS/RIXS spectra                ...  NO

SCF SOC stabilization energy            ...  NO
Diagonal Born-Oppenheimer correction    ...  NO

-------------
DIPOLE MOMENT
-------------

Method             : SCF
Type of density    : Electron Density
Multiplicity       :   1
Irrep              :   0
Energy             :  -234.2696757717638718 Eh
Basis              : AO
                                X                 Y                 Z
Electronic contribution:      3.170597447       0.688439842      -0.027277808
Nuclear contribution   :     -3.245895793      -0.705015384       0.028514622
                        -----------------------------------------
Total Dipole Moment    :     -0.075298346      -0.016575541       0.001236814
                        -----------------------------------------
Magnitude (a.u.)       :      0.077111083
Magnitude (Debye)      :      0.196000797



--------------------
Rotational spectrum 
--------------------
 
Rotational constants in cm-1:             0.175049             0.108552             0.077508 
Rotational constants in MHz :          5247.834774          3254.298590          2323.645928 

Dipole components along the rotational axes: 
x,y,z [a.u.] :     0.000137    -0.077108     0.000692 
x,y,z [Debye]:     0.000348    -0.195993     0.001758 

 

Dipole moment calculation done in   0.0 sec 

Maximum memory used throughout the entire PROP-calculation: 6.7 MB

--------------------------------
SUGGESTED CITATIONS FOR THIS RUN
--------------------------------

Below you find a list of papers that are relevant to this ORCA run
We neither can nor want to force you to cite these papers, but we appreciate if you do
You receive ORCA, which is the product of decades of hard work by many enthusiastic individuals, for free
The only thing we kindly ask in return is that you cite our papers,
We deeply appreciate it, if you show your appreciation for ORCA by not just citing the generic ORCA reference.

Please note that relegating all ORCA citations to the supporting information does *not* help us.
SI sections are not indexed - citations you put there will not count into any citation statistics
But we need these citations in order to attract the funding resources that allow us to do what we are doing

Therefore, if you are a happy ORCA user, please consider citing a few of the papers listed below in the main body of your paper

In addition to the list printed below, the program has created the file orca.bibtex that contains the list in bibtex format
You can import this file easily into all common literature databanks and citation aid programs


List of essential papers. We consider these as the minimum necessary citations

  1. Neese, F.
     Software update: the ORCA program system, version 6.0
     WIRES Comput. Molec. Sci. 2025 15(1), e70019
     doi.org/10.1002/wcms.7019

List of papers to cite with high priority. The work reported in these papers was absolutely
necessary for this run to complete.
Our perspective: the developers of density functionals and basis sets usually get cited in chemistry papers
Good! But without the algorithms to do something with them, the functionals or basis sets would not do anything.
Hence, in our opinion, the algorithm design and method developments papers are equally worthy of getting cited

  1. Neese, F.
     An improvement of the resolution of the identity approximation for the formation of the Coulomb matrix
     J. Comp. Chem. 2003 24(14), 1740-1747
     doi.org/10.1002/jcc.10318
  2. Neese, F.; Wennmohs, F.; Hansen, A.; Becker, U.
     Efficient, approximate and parallel Hartree-Fock and hybrid DFT calculations. A 'chain-of-spheres' algorithm for the Hartree-Fock exchange
     Chem. Phys. 2009 356(1-3), 98-109
     doi.org/10.1016/j.chemphys.2008.10.036
  3. Grimme, S.; Antony, J.; Ehrlich, S.; Krieg, H.
     A consistent and accurate ab initio parametrization of density functional dispersion correction (DFT-D) for the 94 elements H-Pu
     J. Chem. Phys. 2010 132 , 154104
     doi.org/10.1063/1.3382344
  4. Grimme, S.; Ehrlich, S.; Goerigk, L.
     Effect of the damping function in dispersion corrected density functional theory
     J. Comput. Chem. 2011 32(7), 1456-1465
     doi.org/10.1002/jcc.21759
  5. Helmich-Paris, B.; de Souza, B.; Neese, F.; Izsák, R.
     An improved chain of spheres for exchange algorithm
     J. Chem. Phys. 2021 155(10), 104109
     doi.org/10.1063/5.0058766
  6. Neese, F.
     The SHARK Integral Generation and Digestion System
     J. Comp. Chem. 2022 44(3), 381
     doi.org/10.1002/jcc.26942

List of suggested additional citations. These are papers that are important in the 'surrounding' of 
of this run, or papers that preceded the highly important papers. If you like your results we are grateful for a citation.

  1. Izsak, R.; Neese, F.
     An overlap fitted chain of spheres exchange method
     J. Chem. Phys. 2011 135 , 144105
     doi.org/10.1063/1.3646921
  2. Izsak, R.; Hansen, A.; Neese, F.
     The resolution of identity and chain of spheres approximations for the LPNO-CCSD singles Fock term
     Molec. Phys. 2012 110 , 2413-2417
     doi.org/10.1080/00268976.2012.687466
  3. Neese, F.
     The ORCA program system
     WIRES Comput. Molec. Sci. 2012 2(1), 73-78
     doi.org/10.1002/wcms.81
  4. Izsak, R.; Neese, F.; Klopper, W.
     Robust fitting techniques in the chain of spheres approximation to the Fock exchange: The role of the complementary space
     J. Chem. Phys. 2013 139 , 
     doi.org/10.1063/1.4819264
  5. Neese, F.
     Software update: the ORCA program system, version 4.0
     WIRES Comput. Molec. Sci. 2018 8(1), 1-6
     doi.org/10.1002/wcms.1327
  6. Neese, F.; Wennmohs, F.; Becker, U.; Riplinger, C.
     The ORCA quantum chemistry program package
     J. Chem. Phys. 2020 152(22), 224108
     doi.org/10.1063/5.0004608
  7. Neese, F.
     Software update: The ORCA program system—Version 5.0
     WIRES Comput. Molec. Sci. 2022 12(1), e1606
     doi.org/10.1002/wcms.1606

List of optional additional citations

  1. Neese, F.
     Approximate second-order SCF convergence for spin unrestricted wavefunctions
     Chem. Phys. Lett. 2000 325(1-3), 93-98
     doi.org/10.1016/s0009-2614(00)00662-x

Timings for individual modules:

Sum of individual times          ...       17.122 sec (=   0.285 min)
Startup calculation              ...        1.305 sec (=   0.022 min)   7.6 %
SCF iterations                   ...        8.944 sec (=   0.149 min)  52.2 %
Property calculations            ...        0.449 sec (=   0.007 min)   2.6 %
SCF Gradient evaluation          ...        6.425 sec (=   0.107 min)  37.5 %
                             ****ORCA TERMINATED NORMALLY****
TOTAL RUN TIME: 0 days 0 hours 0 minutes 17 seconds 691 msec
