
                                 *****************
                                 * O   R   C   A *
                                 *****************

                                            #,                                       
                                            ###                                      
                                            ####                                     
                                            #####                                    
                                            ######                                   
                                           ########,                                 
                                     ,,################,,,,,                         
                               ,,#################################,,                 
                          ,,##########################################,,             
                       ,#########################################, ''#####,          
                    ,#############################################,,   '####,        
                  ,##################################################,,,,####,       
                ,###########''''           ''''###############################       
              ,#####''   ,,,,##########,,,,          '''####'''          '####       
            ,##' ,,,,###########################,,,                        '##       
           ' ,,###''''                  '''############,,,                           
         ,,##''                                '''############,,,,        ,,,,,,###''
      ,#''                                            '''#######################'''  
     '                                                          ''''####''''         
             ,#######,   #######,   ,#######,      ##                                
            ,#'     '#,  ##    ##  ,#'     '#,    #''#        ,####,    ,#,          
            ##       ##  ##   ,#'  ##            #'  '#       #'       ,# #          
            ##       ##  #######   ##           ,######,      #####,      #          
            '#,     ,#'  ##    ##  '#,     ,#' ,#      #,     #,   #      #          
             '#######'   ##     ##  '#######'  #'      '#     '####' #    #          



                #########################################################
                #                        -***-                          #
                #          Department of theory and spectroscopy        #
                #                                                       #
                #                      Frank Neese                      #
                #                                                       #
                #     Directorship, Architecture, Infrastructure        #
                #                    SHARK, DRIVERS                     #
                #        Core code/Algorithms in most modules           #
                #                                                       #
                #        Max Planck Institute fuer Kohlenforschung      #
                #                Kaiser Wilhelm Platz 1                 #
                #                 D-45470 Muelheim/Ruhr                 #
                #                      Germany                          #
                #                                                       #
                #                  All rights reserved                  #
                #                        -***-                          #
                #########################################################


                         Program Version 6.1.0  -  RELEASE   -
                                (GIT: $679e74b$)
                          ($2025-06-10 18:02:51 +0200$)


 With contributions from (in alphabetic order):
[Max-Planck-Institut fuer Kohlenforschung]                               
  Daniel Aravena         : Magnetic Suceptibility                        
  Michael Atanasov       : Ab Initio Ligand Field Theory (pilot matlab implementation)
  Alexander A. Auer      : GIAO ZORA, VPT2 properties, NMR spectrum      
  Ute Becker             : All parallelization in ORCA, NUMFREQ, NUMCALC 
  Giovanni Bistoni       : ED, misc. LED, open-shell LED, HFLD           
  Dmytro Bykov           : pre 5.0 version of the SCF Hessian            
  Marcos Casanova-Páez   : Triplet and SCS-CIS(D). UHF-(DLPNO)-IP/EA/STEOM-CCSD. UHF-CVS-IP/STEOM-CCSD   
  Vijay G. Chilkuri      : MRCI spin determinant printing, contributions to CSF-ICE 
  Pauline Colinet        : FMM embedding                                 
  Dipayan Datta          : RHF DLPNO-CCSD density                        
  Achintya Kumar Dutta   : EOM-CC, STEOM-CC                              
  Nicolas Foglia         : Exact transition moments, OPA infrastructure, MCD improvements    
  Dmitry Ganyushin       : Spin-Orbit,Spin-Spin,Magnetic field MRCI      
  Miquel Garcia-Rates    : C-PCM and meta-GGA Hessian, CCSD/C-PCM, Gaussian charge scheme 
  Tiago L. C. Gouveia    : GS-ROHF, GS-ROCIS                             
  Yang Guo               : DLPNO-NEVPT2, F12-NEVPT2, CIM, IAO-localization        
  Andreas Hansen         : Spin unrestricted coupled pair/coupled cluster methods 
  Ingolf Harden          : AUTO-CI MPn and infrastructure                
  Benjamin Helmich-Paris : MC-RPA, TRAH-(SCF,CASSCF), AVAS, COSX integrals, SCF dyn. polar., MC-PDFT, srDFT 
  Lee Huntington         : MR-EOM, pCC                                   
  Robert Izsak           : Overlap fitted RIJCOSX, COSX-SCS-MP3, EOM     
  Riya Kayal             : Wick's Theorem for AUTO-CI, AUTO-CI UHF-CCSDT 
  Emily Kempfer          : AUTO-CI RHF CISDT and CCSDT, approximate NEVPT4
  Christian Kollmar      : KDIIS, OOCD, Brueckner-CCSD(T), CCSD density, CASPT2, CASPT2-K, improved NEVPT2 
  Axel Koslowski         : Symmetry handling                             
  Simone Kossmann        : meta-GGA functionals, TD-DFT gradient, OOMP2, (MP2 Hessian; deprecated post 5.0) 
  Lucas Lang             : DCDCAS, Hyperfine gauge corrections, ICE-SOC+SSC
  Marvin Lechner         : AUTO-CI (C++ implementation), FIC-MRCC        
  Spencer Leger          : CASSCF response                               
  Dagmar Lenk            : GEPOL surface, SMD, ORCA-2-JSON               
  Dimitrios Liakos       : Extrapolation schemes; Compound Job, Property file
  Dimitrios Manganas     : Further ROCIS development; embedding schemes. LFT, Crystal Embedding 
  Dimitrios Pantazis     : SARC Basis sets                               
  Anastasios Papadopoulos: AUTO-CI, single reference methods and gradients 
  Taras Petrenko         : pre 6.0 DFT Hessian and TD-DFT gradient,  ECA, NRVS 
  Petra Pikulova         : Analytic Raman intensities                    
  Peter Pinski           : DLPNO-MP2, DLPNO-MP2 Gradient                 
  Shashank Vittal Rao    : ES-AILFT, MagRelax                            
  Christoph Reimann      : Effective Core Potentials                     
  Marius Retegan         : Local ZFS, SOC                                
  Christoph Riplinger    : Optimizer, TS searches, QM/MM, DLPNO-CCSD(T), (RO)-DLPNO pert. Triples 
  Michael Roemelt        : Original ROCIS implementation, recursive CI coupling coefficients
  Masaaki Saitow         : Open-shell DLPNO-CCSD energy and density      
  Barbara Sandhoefer     : DKH picture change effects                    
  Yorick L. A. Schmerwitz: GMF and freeze-and-release deltaSCF, NEB S-IDPP initial path                    
  Kantharuban Sivalingam : CASSCF convergence/infrastructure, NEVPT2, NEVPT3, NEVPT4(SD), FIC-MRCI and CEPA variants
  Bernardo de Souza      : ESD, SOC TD-DFT                               
  Georgi L. Stoychev     : AutoAux, RI-MP2 NMR, DLPNO-MP2 response, X2C  
  Van Anh Tran           : RI-MP2 g-tensors                              
  Willem Van den Heuvel  : Paramagnetic NMR                              
  Zikuan Wang            : NOTCH, Electric field optimization            
  Frank Wennmohs         : Technical directorship and infrastructure     
  Hang Xu                : AUTO-CI-Response properties                   
                                                                         
[FACCTs GmbH]                                                            
  Markus Bursch, Nicolas Foglia, Miquel Garcia-Rates, Ingolf Harden, Hagen Neugebauer, Anastasios Papadopoulos, 
  Christoph Riplinger, Bernardo de Souza, Georgi L. Stoychev                                                    
                                                                 
  APM, various basis sets, CI-OPT, improved COSX, DLPNO-Multilevel,           
  DOCKER, DRACO, updates on ESD, Fragmentator, GOAT, IRC, LR-CPCM, L-BFGS, MBIS, meta-GGA TD-DFT gradient, ML-optimized integration grids, 
  MM, NACMEs, nearIR, NEB, NEB-TS, NL-DFT gradient (VV10), 2- and 3-layer-ONIOM, interface openCOSMO-RS, QMMM,   
  Crystal-QMMM, RESP, rigid body optimization, SF, symmetry and pop. for TD-DFT, various functionals, SOLVATOR                                   
                                                                         
[Other institutions]                                                     
  V. Asgeirsson          : NEB                                           
  Christoph Bannwarth    : sTDA-DFT, sTD-DFT, PBEh-3c, B97-3c, D3        
  Giovanni Bistoni       : ETS/NOCV, ADLD/ADEX, COVALED                  
  Martin Brehm           : Molecular dynamics                            
  Ronald Cardenas        : ETS/NOCV                                      
  Martina Colucci        : COVALED                                       
  Sebastian Ehlert       : rSCAN, r2SCAN, r2SCAN-3c, D4, dhf basis sets  
  Marvin Friede          : D4 for Fr, Ra, Ac-Lr                          
  Lars Goerigk           : TD-DFT with DH, B97 family of functionals     
  Stefan Grimme          : VdW corrections, initial TS optimization, DFT functionals, gCP, sTDA/sTD-DF 
  Waldemar Hujo          : DFT-NL                                        
  H. Jonsson             : NEB                                           
  Holger Kruse           : gCP                                           
  Marcel Mueller         : wB97X-3c, vDZP basis set                      
  Hagen Neugebauer       : wr2SCAN, Native XTB                           
  Gianluca Regni         : ADLD/ADEX                                     
  Tobias Risthaus        : pre 6.0 range-separated hybrid DFT and stability analysis
  Lukas Wittmann         : regularized MP2, r2SCAN double-hybrids, wr2SCAN        
                                                                         
We gratefully acknowledge several colleagues who have allowed us to      
interface, adapt or use parts of their codes:                            
  Ed Valeev, F. Pavosevic, A. Kumar             : LibInt (2-el integral package), F12 methods 
  Garnet Chan, S. Sharma, J. Yang, R. Olivares  : DMRG                   
  Ulf Ekstrom                                   : XCFun DFT Library      
  Mihaly Kallay                                 : mrcc  (arbitrary order and MRCC methods)
  Frank Weinhold                                : gennbo (NPA and NBO analysis)           
  Simon Mueller                                 : openCOSMO-RS                            
  Christopher J. Cramer and Donald G. Truhlar   : smd solvation model                     
  S Lehtola, MJT Oliveira, MAL Marques          : LibXC Library                           
  Liviu Ungur et al                             : ANISO software                          


 Your calculation uses the libint2 library for the computation of 2-el integrals
 For citations please refer to: http://libint.valeyev.net

 Your ORCA version has been built with support for libXC version: 7.0.0
 For citations please refer to: https://libxc.gitlab.io

 This ORCA versions uses:
   CBLAS   interface :  Fast vector & matrix operations
   LAPACKE interface :  Fast linear algebra routines
   SCALAPACK package :  Parallel linear algebra routines
   Shared memory     :  Shared parallel matrices
   BLAS/LAPACK       :  OpenBLAS 0.3.29  USE64BITINT DYNAMIC_ARCH NO_AFFINITY Zen SINGLE_THREADED
        Core in use  :  Zen
   Copyright (c) 2011-2014, The OpenBLAS Project


  ***********************************
  * Starting time: Wed Sep 10 13:34:39 2025
  * Host name:     wyk-Server
  * Process ID:    2284689
  * Working dir.:  /home/wyk/Documents/code/openQDC/MGMR/singlepointcalc/37/prod
  ***********************************

Your calculation utilizes the atom-pairwise dispersion correction
with the Becke-Johnson damping scheme (D3BJ)


Warning: RI is on but no J-basis has been assigned. Assigning Def2/J (nothing to worry about!)
================================================================================

----- Orbital basis set information -----
Your calculation utilizes the basis: def2-SVP
   F. Weigend and R. Ahlrichs, Phys. Chem. Chem. Phys. 7, 3297 (2005).

----- AuxJ basis set information -----
Your calculation utilizes the auxiliary basis: def2/J
   H-Rn: F. Weigend, Phys. Chem. Chem. Phys. 8, 1057 (2006).
   Fr-Lr: K. Eichkorn, F. Weigend, O. Treutler, R. Ahlrichs; Theor. Chem. Acc. 97, 119 (1997).

================================================================================
                                        WARNINGS
                       Please study these warnings very carefully!
================================================================================


================================================================================
                                       INPUT FILE
================================================================================
NAME = orca.inp
|  1> ! B3LYP def2-SVP d3 EnGrad 
|  2> %pal nprocs 6 end 
|  3> *xyz 0 1 
|  4> C   1.97822442788576 -0.0369775454578 0.47251527596911
|  5> C   0.83943610797995 0.52046699268825 -0.39555881338549
|  6> H   2.95768481753331 0.28999473525443 0.09025529947565
|  7> H   1.97794995065923 -1.13906818825213 0.48907606109564
|  8> H   1.88296946769249 0.31749281762275 1.51077935494941
|  9> C   -0.52179260650887 0.10618340492983 0.15035560138983
| 10> O   -1.14671847258435 0.82385877106619 0.89939620126606
| 11> C   -1.03866163648064 -1.25630046229058 -0.27248493701016
| 12> H   -1.3184823896196 -1.2219823001839 -1.33973128617111
| 13> H   -1.92015541305507 -1.52492529411639 0.3246253320323
| 14> H   -0.25970491823142 -2.02959070798133 -0.17195607808674
| 15> H   0.87205847130308 1.62066341891435 -0.39644345778167
| 16> H   0.95272019342615 0.16621035780636 -1.43450055374284
| 17> *
| 18> 
| 19>                          ****END OF INPUT****
================================================================================

                     *******************************
                     * Energy+Gradient Calculation *
                     *******************************

---------------------------------
CARTESIAN COORDINATES (ANGSTROEM)
---------------------------------
  C      1.978224   -0.036978    0.472515
  C      0.839436    0.520467   -0.395559
  H      2.957685    0.289995    0.090255
  H      1.977950   -1.139068    0.489076
  H      1.882969    0.317493    1.510779
  C     -0.521793    0.106183    0.150356
  O     -1.146718    0.823859    0.899396
  C     -1.038662   -1.256300   -0.272485
  H     -1.318482   -1.221982   -1.339731
  H     -1.920155   -1.524925    0.324625
  H     -0.259705   -2.029591   -0.171956
  H      0.872058    1.620663   -0.396443
  H      0.952720    0.166210   -1.434501

----------------------------
CARTESIAN COORDINATES (A.U.)
----------------------------
  NO LB      ZA    FRAG     MASS         X           Y           Z
   0 C     6.0000    0    12.011    3.738302   -0.069877    0.892924
   1 C     6.0000    0    12.011    1.586304    0.983540   -0.747498
   2 H     1.0000    0     1.008    5.589214    0.548011    0.170558
   3 H     1.0000    0     1.008    3.737784   -2.152527    0.924220
   4 H     1.0000    0     1.008    3.558297    0.599974    2.854959
   5 C     6.0000    0    12.011   -0.986045    0.200658    0.284131
   6 O     8.0000    0    15.999   -2.166984    1.556867    1.699613
   7 C     6.0000    0    12.011   -1.962786   -2.374064   -0.514922
   8 H     1.0000    0     1.008   -2.491571   -2.309212   -2.531725
   9 H     1.0000    0     1.008   -3.628568   -2.881691    0.613453
  10 H     1.0000    0     1.008   -0.490771   -3.835371   -0.324950
  11 H     1.0000    0     1.008    1.647952    3.062610   -0.749170
  12 H     1.0000    0     1.008    1.800380    0.314092   -2.710813

--------------------------------
INTERNAL COORDINATES (ANGSTROEM)
--------------------------------
 C      0   0   0     0.000000000000     0.00000000     0.00000000
 C      1   0   0     1.536598801012     0.00000000     0.00000000
 H      1   2   0     1.101079568819   110.81765939     0.00000000
 H      1   2   3     1.102215096919   111.77981956   239.98247679
 H      1   2   3     1.101233419146   110.59446951   119.71274232
 C      2   1   3     1.524006906971   111.15983562   181.65861935
 O      6   2   1     1.211054123279   121.42378952    94.30954912
 C      6   2   1     1.517336483281   116.64946817   275.35420518
 H      8   6   2     1.103853323560   109.13928150   289.03753644
 H      8   6   2     1.098057945561   109.97378679   169.19336425
 H      8   6   2     1.102205708778   111.33536680    46.69194205
 H      2   1   3     1.100680324829   109.94436177   300.40510972
 H      2   1   3     1.103508489877   109.83636577    59.71262320

---------------------------
INTERNAL COORDINATES (A.U.)
---------------------------
 C      0   0   0     0.000000000000     0.00000000     0.00000000
 C      1   0   0     2.903750911624     0.00000000     0.00000000
 H      1   2   0     2.080738836725   110.81765939     0.00000000
 H      1   2   3     2.082884673851   111.77981956   239.98247679
 H      1   2   3     2.081029571708   110.59446951   119.71274232
 C      2   1   3     2.879955680379   111.15983562   181.65861935
 O      6   2   1     2.288560626354   121.42378952    94.30954912
 C      6   2   1     2.867350406407   116.64946817   275.35420518
 H      8   6   2     2.085980473548   109.13928150   289.03753644
 H      8   6   2     2.075028796286   109.97378679   169.19336425
 H      8   6   2     2.082866932835   111.33536680    46.69194205
 H      2   1   3     2.079984374922   109.94436177   300.40510972
 H      2   1   3     2.085328832324   109.83636577    59.71262320

---------------------
BASIS SET INFORMATION
---------------------
There are 3 groups of distinct atoms

 Group   1 Type C   : 7s4p1d contracted to 3s2p1d pattern {511/31/1}
 Group   2 Type H   : 4s1p contracted to 2s1p pattern {31/1}
 Group   3 Type O   : 7s4p1d contracted to 3s2p1d pattern {511/31/1}

Atom   0C    basis set group =>   1
Atom   1C    basis set group =>   1
Atom   2H    basis set group =>   2
Atom   3H    basis set group =>   2
Atom   4H    basis set group =>   2
Atom   5C    basis set group =>   1
Atom   6O    basis set group =>   3
Atom   7C    basis set group =>   1
Atom   8H    basis set group =>   2
Atom   9H    basis set group =>   2
Atom  10H    basis set group =>   2
Atom  11H    basis set group =>   2
Atom  12H    basis set group =>   2
---------------------------------
AUXILIARY/J BASIS SET INFORMATION
---------------------------------
There are 3 groups of distinct atoms

 Group   1 Type C   : 12s5p4d2f1g contracted to 6s4p3d1f1g pattern {711111/2111/211/2/1}
 Group   2 Type H   : 5s2p1d contracted to 3s1p1d pattern {311/2/1}
 Group   3 Type O   : 12s5p4d2f1g contracted to 6s4p3d1f1g pattern {711111/2111/211/2/1}

Atom   0C    basis set group =>   1
Atom   1C    basis set group =>   1
Atom   2H    basis set group =>   2
Atom   3H    basis set group =>   2
Atom   4H    basis set group =>   2
Atom   5C    basis set group =>   1
Atom   6O    basis set group =>   3
Atom   7C    basis set group =>   1
Atom   8H    basis set group =>   2
Atom   9H    basis set group =>   2
Atom  10H    basis set group =>   2
Atom  11H    basis set group =>   2
Atom  12H    basis set group =>   2


           ************************************************************
           *        Program running with 6 parallel MPI-processes     *
           *              working on a common directory               *
           ************************************************************
------------------------------------------------------------------------------
                             ORCA STARTUP CALCULATIONS
                           -- RI-GTO INTEGRALS CHOSEN --
------------------------------------------------------------------------------
------------------------------------------------------------------------------
                   ___                                                        
                  /   \      - P O W E R E D   B Y -                         
                 /     \                                                     
                 |  |  |   _    _      __       _____    __    __             
                 |  |  |  | |  | |    /  \     |  _  \  |  |  /  |          
                  \  \/   | |  | |   /    \    | | | |  |  | /  /          
                 / \  \   | |__| |  /  /\  \   | |_| |  |  |/  /          
                |  |  |   |  __  | /  /__\  \  |    /   |      \           
                |  |  |   | |  | | |   __   |  |    \   |  |\   \          
                \     /   | |  | | |  |  |  |  | |\  \  |  | \   \       
                 \___/    |_|  |_| |__|  |__|  |_| \__\ |__|  \__/        
                                                                              
                      - O R C A' S   B I G   F R I E N D -                    
                                      &                                       
                       - I N T E G R A L  F E E D E R -                       
                                                                              
 v1 FN, 2020, v2 2021, v3 2022-2024                                           
------------------------------------------------------------------------------


----------------------
SHARK INTEGRAL PACKAGE
----------------------

Number of atoms                             ...     13
Number of basis functions                   ...    110
Number of shells                            ...     54
Maximum angular momentum                    ...      2
Integral batch strategy                     ... SHARK/LIBINT Hybrid
RI-J (if used) integral strategy            ... SPLIT-RIJ (Revised 2003 algorithm where possible)
Printlevel                                  ...      1
Contraction scheme used                     ... SEGMENTED contraction
Prescreening option                         ... SCHWARTZ
   Thresh                                   ... 2.500e-11
   Tcut                                     ... 2.500e-12
   Tpresel                                  ... 2.500e-12 
Coulomb Range Separation                    ... NOT USED
Exchange Range Separation                   ... NOT USED
Multipole approximations                    ... NOT USED
Finite Nucleus Model                        ... NOT USED
CABS basis                                  ... NOT available
Auxiliary Coulomb fitting basis             ... AVAILABLE
   # of basis functions in Aux-J            ...    333
   # of shells in Aux-J                     ...    115
   Maximum angular momentum in Aux-J        ...      4
Auxiliary J/K fitting basis                 ... NOT available
Auxiliary Correlation fitting basis         ... NOT available
Auxiliary 'external' fitting basis          ... NOT available

Checking pre-screening integrals            ... done (  0.0 sec) Dimension = 54
   => SHARK Basis and OBASIS are compatible. Storing Pre-screening
Shell pair information
Shell pair cut-off parameter TPreSel        ...   2.5e-12
Total number of shell pairs                 ...      1485
Shell pairs after pre-screening             ...      1464
Total number of primitive shell pairs       ...      5139
Primitive shell pairs kept                  ...      4032
          la=0 lb=0:    488 shell pairs
          la=1 lb=0:    548 shell pairs
          la=1 lb=1:    169 shell pairs
          la=2 lb=0:    154 shell pairs
          la=2 lb=1:     90 shell pairs
          la=2 lb=2:     15 shell pairs

Checking whether 4 symmetric matrices of dimension 110 fit in memory
:Max Core in MB      =   4096.00
 MB in use           =      5.17
 MB left             =   4090.83
 MB needed           =      0.19
 Data fit in memory  = YES
Calculating RI/J V-Matrix + Cholesky decomp.... done (  0.0 sec)
Calculating Nuclear repulsion               ... done (  0.0 sec) ENN=    175.654307437775 Eh

Diagonalization of the overlap matrix:
Smallest eigenvalue                        ... 2.441e-03
Time for diagonalization                   ...    0.002 sec
Threshold for overlap eigenvalues          ... 1.000e-07
Number of eigenvalues below threshold      ... 0
Time for construction of square roots      ...    0.001 sec
Total time needed                          ...    0.004 sec

-------------------
DFT GRID GENERATION
-------------------

General Integration Accuracy     IntAcc      ... 4.388
Radial Grid Type                 RadialGrid  ... OptM3 with GC (2021)
Angular Grid (max. ang.)         AngularGrid ... 4 (Lebedev-302)
Angular grid pruning method      GridPruning ... 4 (adaptive)
Weight generation scheme         WeightScheme... mBecke (2022)
Basis function cutoff            BFCut       ... 1.0000e-11
Integration weight cutoff        WCut        ... 1.0000e-14
Partially contracted basis set               ... off
Rotationally invariant grid construction     ... off
Angular grids for H and He will be reduced by one unit

Total number of grid points                  ...    56089
Total number of batches                      ...      882
Average number of points per batch           ...       63
Average number of grid points per atom       ...     4315

--------------------
COSX GRID GENERATION
--------------------

GRIDX 1
-------
General Integration Accuracy     IntAcc      ... 3.816
Radial Grid Type                 RadialGrid  ... OptM3 with GC (2021)
Angular Grid (max. ang.)         AngularGrid ... 1 (Lebedev-50)
Angular grid pruning method      GridPruning ... 4 (adaptive)
Weight generation scheme         WeightScheme... mBecke (2022)
Basis function cutoff            BFCut       ... 1.0000e-11
Integration weight cutoff        WCut        ... 1.0000e-14
Partially contracted basis set               ... on
Rotationally invariant grid construction     ... off
Angular grids for H and He will be reduced by one unit

Total number of grid points                  ...     7182
Total number of batches                      ...       64
Average number of points per batch           ...      112
Average number of grid points per atom       ...      552
UseSFitting                                  ... on

GRIDX 2
-------
General Integration Accuracy     IntAcc      ... 4.020
Radial Grid Type                 RadialGrid  ... OptM3 with GC (2021)
Angular Grid (max. ang.)         AngularGrid ... 2 (Lebedev-110)
Angular grid pruning method      GridPruning ... 4 (adaptive)
Weight generation scheme         WeightScheme... mBecke (2022)
Basis function cutoff            BFCut       ... 1.0000e-11
Integration weight cutoff        WCut        ... 1.0000e-14
Partially contracted basis set               ... on
Rotationally invariant grid construction     ... off
Angular grids for H and He will be reduced by one unit

Total number of grid points                  ...    15232
Total number of batches                      ...      126
Average number of points per batch           ...      120
Average number of grid points per atom       ...     1172
UseSFitting                                  ... on

GRIDX 3
-------
General Integration Accuracy     IntAcc      ... 4.338
Radial Grid Type                 RadialGrid  ... OptM3 with GC (2021)
Angular Grid (max. ang.)         AngularGrid ... 3 (Lebedev-194)
Angular grid pruning method      GridPruning ... 4 (adaptive)
Weight generation scheme         WeightScheme... mBecke (2022)
Basis function cutoff            BFCut       ... 1.0000e-11
Integration weight cutoff        WCut        ... 1.0000e-14
Partially contracted basis set               ... on
Rotationally invariant grid construction     ... off
Angular grids for H and He will be reduced by one unit

Total number of grid points                  ...    33458
Total number of batches                      ...      268
Average number of points per batch           ...      124
Average number of grid points per atom       ...     2574
UseSFitting                                  ... on
Grids setup in   0.6 sec
Initializing property integral containers    ... done (  0.0 sec)

SHARK setup successfully completed in   0.7 seconds

Maximum memory used throughout the entire STARTUP-calculation: 16.4 MB


           ************************************************************
           *        Program running with 6 parallel MPI-processes     *
           *              working on a common directory               *
           ************************************************************
-------------------------------------------------------------------------------
                                 ORCA GUESS
                   Start orbitals & Density for SCF / CASSCF
-------------------------------------------------------------------------------

------------
SCF SETTINGS
------------
Hamiltonian:
 Density Functional     Method          .... DFT(GTOs)
 Exchange Functional    Exchange        .... B88
   X-Alpha parameter    XAlpha          ....  0.666667
   Becke's b parameter  XBeta           ....  0.004200
 Correlation Functional Correlation     .... LYP
 LDA part of GGA corr.  LDAOpt          .... VWN-5
 Gradients option       PostSCFGGA      .... off
 Hybrid DFT is turned on
   Fraction HF Exchange ScalHFX         ....  0.200000
   Scaling of DF-GGA-X  ScalDFX         ....  0.720000
   Scaling of DF-GGA-C  ScalDFC         ....  0.810000
   Scaling of DF-LDA-C  ScalLDAC        ....  1.000000
   Perturbative correction              ....  0.000000
   NL short-range parameter             ....  4.800000
 RI-approximation to the Coulomb term is turned on
   Number of AuxJ basis functions       .... 333
   RIJ-COSX (HFX calculated with COS-X)).... on


General Settings:
 Integral files         IntName         .... orca
 Hartree-Fock type      HFTyp           .... RHF
 Total Charge           Charge          ....    0
 Multiplicity           Mult            ....    1
 Number of Electrons    NEL             ....   40
 Basis Dimension        Dim             ....  110
 Nuclear Repulsion      ENuc            ....    175.6543074378 Eh

Convergence Acceleration:
 AO-DIIS                CNVDIIS         .... on
   Start iteration      DIISMaxIt       ....    12
   Startup error        DIISStart       ....  0.200000
   # of expansion vecs  DIISMaxEq       ....     5
   Bias factor          DIISBfac        ....   1.050
   Max. coefficient     DIISMaxC        ....  10.000
 MO-DIIS                CNVKDIIS        .... off
 Trust-Rad. Augm. Hess. CNVTRAH         .... auto
   Auto Start mean grad. ratio tolernc. ....  1.125000
   Auto Start start iteration           ....    50
   Auto Start num. interpolation iter.  ....    10
   Max. Number of Micro iterations      ....    24
   Max. Number of Macro iterations      .... Maxiter - #DIIS iter
   Number of Davidson start vectors     ....     2
   Converg. threshold    (grad. norm)   ....   1.000e-05
   Grad. Scal. Fac. for Micro threshold ....   0.100
   Minimum threshold for Micro iter.    ....   1.000e-02
   NR start threshold (gradient norm)   ....   1.000e-04
   Initial trust radius                 ....   0.400
   Minimum AH scaling param. (alpha)    ....   1.000
   Maximum AH scaling param. (alpha)    .... 1000.000
   Quad. conv. algorithm                .... NR
   White noise on init. David. guess    .... on
   Maximum white noise                  ....   0.010
   Pseudo random numbers                .... off
   Inactive MOs                         .... canonical
   Orbital update algorithm             .... Taylor
   Preconditioner                       .... Diag
   Full preconditioner red. dimension   ....   250
 SOSCF                 CNVSOSCF           .... on
   Start iteration     SOSCFMaxIt         ....   150
   Startup grad/error  SOSCFStart         ....  0.003300
   Hessian update      SOSCFHessUp        .... L-BFGS
   Autom. constraints  SOSCFAutoConstrain .... off
 Level Shifting         CNVShift        .... on
   Level shift para.    LevelShift      ....    0.2500
   Turn off err/grad.   ShiftErr        ....    0.0010
 Zerner damping         CNVZerner       .... off
 Static damping         CNVDamp         .... on
   Fraction old density DampFac         ....    0.7000
   Max. Damping (<1)    DampMax         ....    0.9800
   Min. Damping (>=0)   DampMin         ....    0.0000
   Turn off err/grad.   DampErr         ....    0.1000

SCF Procedure:
 Maximum # iterations   MaxIter         ....   125
 SCF integral mode      SCFMode         .... Direct
   Integral package                     .... SHARK and LIBINT hybrid scheme
 Reset frequency        DirectResetFreq ....    20
 Integral Threshold     Thresh          ....  2.500e-11 Eh
 Primitive CutOff       TCut            ....  2.500e-12 Eh

Convergence Tolerance:
 Convergence Check Mode ConvCheckMode   .... Total+1el-Energy
 Convergence forced     ConvForced      .... 0
 Energy Change          TolE            ....  1.000e-08 Eh
 1-El. energy change                    ....  1.000e-05 Eh
 Orbital Gradient       TolG            ....  1.000e-05
 Orbital Rotation angle TolX            ....  1.000e-05
 DIIS Error             TolErr          ....  5.000e-07

------------------------------
INITIAL GUESS: MODEL POTENTIAL
------------------------------
Loading Hartree-Fock densities                     ... done
Calculating cut-offs                               ... done
Initializing the effective Hamiltonian             ... done
Setting up the integral package (SHARK)            ... done
Starting the Coulomb interaction                   ... done (   0.0 sec)
Making the grid                                    ... done (   0.1 sec)
Mapping shells                                     ... done
Starting the XC term evaluation                    ... done (   0.0 sec)
  promolecular density results
     # of electrons  =     39.997185260
     EX              =    -31.095403584
     EC              =     -1.305698172
     EX+EC           =    -32.401101755
Transforming the Hamiltonian                       ... done (   0.0 sec)
Diagonalizing the Hamiltonian                      ... done (   0.0 sec)
Back transforming the eigenvectors                 ... done (   0.0 sec)
Now organizing SCF variables                       ... done
                      ------------------
                      INITIAL GUESS DONE (   0.2 sec)
                      ------------------
             **** ENERGY FILE WAS UPDATED (orca.en.tmp) ****
Finished Guess after   0.3 sec
Maximum memory used throughout the entire GUESS-calculation: 7.6 MB


           ************************************************************
           *        Program running with 6 parallel MPI-processes     *
           *              working on a common directory               *
           ************************************************************

-------------------------------------------------------------------------------------------
                                      ORCA LEAN-SCF
                              memory conserving SCF solver
-------------------------------------------------------------------------------------------

----------------------------------------D-I-I-S--------------------------------------------
Iteration    Energy (Eh)           Delta-E    RMSDP     MaxDP     DIISErr   Damp  Time(sec)
-------------------------------------------------------------------------------------------
               ***  Starting incremental Fock matrix formation  ***
    1    -231.9546883528354897     0.00e+00  1.35e-02  9.20e-02  2.42e-01  0.700   0.6
    2    -232.0481545574891129    -9.35e-02  9.09e-03  6.40e-02  9.16e-02  0.700   0.4
                               ***Turning on AO-DIIS***
    3    -232.0827484597871830    -3.46e-02  3.18e-03  1.83e-02  3.85e-02  0.700   0.4
    4    -232.1037722273845816    -2.10e-02  4.88e-03  2.58e-02  1.74e-02  0.000   0.3
    5    -232.1500986960941759    -4.63e-02  1.28e-03  9.62e-03  8.43e-03  0.000   0.3
                              *** Initializing SOSCF ***
---------------------------------------S-O-S-C-F--------------------------------------
Iteration    Energy (Eh)           Delta-E    RMSDP     MaxDP     MaxGrad    Time(sec)
--------------------------------------------------------------------------------------
    6    -232.1504573347336873    -3.59e-04  4.85e-04  4.08e-03  1.91e-03     0.3
               *** Restarting incremental Fock matrix formation ***
    7    -232.1505367181659949    -7.94e-05  3.16e-04  2.62e-03  2.23e-04     0.5
    8    -232.1505373163502099    -5.98e-07  7.81e-05  6.49e-04  2.46e-04     0.4
    9    -232.1505391488128680    -1.83e-06  9.40e-05  8.57e-04  1.71e-04     0.4
   10    -232.1505389262852077     2.23e-07  4.49e-05  3.76e-04  1.86e-04     0.4
   11    -232.1505393550572762    -4.29e-07  6.56e-06  5.44e-05  4.45e-06     0.4
   12    -232.1505393569378839    -1.88e-09  2.41e-06  1.89e-05  4.67e-06     0.4
                 **** Energy Check signals convergence ****

               *****************************************************
               *                     SUCCESS                       *
               *           SCF CONVERGED AFTER  12 CYCLES          *
               *****************************************************

Recomputing exchange energy using gridx3       ... done (    0.770 sec)
Old exchange energy                            :     -6.345049992 Eh
New exchange energy                            :     -6.345063081 Eh
Exchange energy change after final integration :     -0.000013089 Eh
Total energy after final integration           :   -232.150552448 Eh
             **** ENERGY FILE WAS UPDATED (orca.en.tmp) ****

----------------
TOTAL SCF ENERGY
----------------

Total Energy       :       -232.15055244755797 Eh           -6317.13769 eV

Components:
Nuclear Repulsion  :        175.65430743777506 Eh            4779.79671 eV
Electronic Energy  :       -407.80484679620201 Eh          -11096.93404 eV
One Electron Energy:       -661.37385724697140 Eh          -17996.89760 eV
Two Electron Energy:        253.56901045076935 Eh            6899.96356 eV

Virial components:
Potential Energy   :       -461.92637067575953 Eh          -12569.65558 eV
Kinetic Energy     :        229.77581822820156 Eh            6252.51789 eV
Virial Ratio       :          2.01033500495251

DFT components:
N(Alpha)           :       20.000002821359 electrons
N(Beta)            :       20.000002821359 electrons
N(Total)           :       40.000005642717 electrons
E(X)               :      -25.182772811326 Eh       
E(C)               :       -1.549928249906 Eh       
E(XC)              :      -26.732701061232 Eh       

---------------
SCF CONVERGENCE
---------------

  Last Energy change         ...    1.8806e-09  Tolerance :   1.0000e-08
  Last MAX-Density change    ...    1.8866e-05  Tolerance :   1.0000e-07
  Last RMS-Density change    ...    2.4065e-06  Tolerance :   5.0000e-09
  Last DIIS Error            ...    1.9107e-03  Tolerance :   5.0000e-07
  Last Orbital Gradient      ...    4.6732e-06  Tolerance :   1.0000e-05
  Last Orbital Rotation      ...    5.3955e-06  Tolerance :   1.0000e-05


----------------
ORBITAL ENERGIES
----------------

  NO   OCC          E(Eh)            E(eV) 
   0   2.0000     -19.116818      -520.1951 
   1   2.0000     -10.267708      -279.3985 
   2   2.0000     -10.192631      -277.3556 
   3   2.0000     -10.191938      -277.3367 
   4   2.0000     -10.190744      -277.3042 
   5   2.0000      -1.024523       -27.8787 
   6   2.0000      -0.780439       -21.2368 
   7   2.0000      -0.724102       -19.7038 
   8   2.0000      -0.636527       -17.3208 
   9   2.0000      -0.520745       -14.1702 
  10   2.0000      -0.469406       -12.7732 
  11   2.0000      -0.459597       -12.5063 
  12   2.0000      -0.443570       -12.0702 
  13   2.0000      -0.414776       -11.2866 
  14   2.0000      -0.402598       -10.9553 
  15   2.0000      -0.386622       -10.5205 
  16   2.0000      -0.369593       -10.0571 
  17   2.0000      -0.351879        -9.5751 
  18   2.0000      -0.342707        -9.3255 
  19   2.0000      -0.242796        -6.6068 
  20   0.0000      -0.013464        -0.3664 
  21   0.0000       0.049867         1.3570 
  22   0.0000       0.087656         2.3853 
  23   0.0000       0.100766         2.7420 
  24   0.0000       0.115777         3.1505 
  25   0.0000       0.130267         3.5447 
  26   0.0000       0.139536         3.7970 
  27   0.0000       0.140473         3.8225 
  28   0.0000       0.172772         4.7014 
  29   0.0000       0.193429         5.2635 
  30   0.0000       0.218173         5.9368 
*Only the first 10 virtual orbitals were printed.

                    ********************************
                    * MULLIKEN POPULATION ANALYSIS *
                    ********************************

-----------------------
MULLIKEN ATOMIC CHARGES
-----------------------
   0 C :   -0.016013
   1 C :    0.032231
   2 H :    0.025138
   3 H :    0.014176
   4 H :    0.029150
   5 C :   -0.035058
   6 O :   -0.200916
   7 C :    0.038420
   8 H :    0.035240
   9 H :    0.031154
  10 H :    0.024336
  11 H :    0.017509
  12 H :    0.004633
Sum of atomic charges:    0.0000000

--------------------------------
MULLIKEN REDUCED ORBITAL CHARGES
--------------------------------
  0 C s       :     3.012808  s :     3.012808
      pz      :     1.001258  p :     2.974209
      px      :     0.972505
      py      :     1.000447
      dz2     :     0.008326  d :     0.028997
      dxz     :     0.005200
      dyz     :     0.003070
      dx2y2   :     0.009062
      dxy     :     0.003339

  1 C s       :     2.998810  s :     2.998810
      pz      :     0.974926  p :     2.935920
      px      :     0.956869
      py      :     1.004126
      dz2     :     0.008778  d :     0.033039
      dxz     :     0.005958
      dyz     :     0.003834
      dx2y2   :     0.009762
      dxy     :     0.004708

  2 H s       :     0.951905  s :     0.951905
      pz      :     0.005606  p :     0.022957
      px      :     0.011702
      py      :     0.005649

  3 H s       :     0.962807  s :     0.962807
      pz      :     0.004719  p :     0.023017
      px      :     0.004500
      py      :     0.013798

  4 H s       :     0.947961  s :     0.947961
      pz      :     0.012825  p :     0.022889
      px      :     0.004315
      py      :     0.005749

  5 C s       :     3.192127  s :     3.192127
      pz      :     0.833516  p :     2.747508
      px      :     0.944422
      py      :     0.969570
      dz2     :     0.015426  d :     0.095423
      dxz     :     0.017142
      dyz     :     0.016614
      dx2y2   :     0.028364
      dxy     :     0.017878

  6 O s       :     3.746018  s :     3.746018
      pz      :     1.312734  p :     4.436775
      px      :     1.568325
      py      :     1.555716
      dz2     :     0.004231  d :     0.018122
      dxz     :     0.003425
      dyz     :     0.004115
      dx2y2   :     0.002496
      dxy     :     0.003855

  7 C s       :     2.951115  s :     2.951115
      pz      :     1.011365  p :     2.985593
      px      :     0.998895
      py      :     0.975334
      dz2     :     0.006972  d :     0.024872
      dxz     :     0.004081
      dyz     :     0.002306
      dx2y2   :     0.004211
      dxy     :     0.007302

  8 H s       :     0.940630  s :     0.940630
      pz      :     0.013540  p :     0.024130
      px      :     0.005825
      py      :     0.004765

  9 H s       :     0.946305  s :     0.946305
      pz      :     0.007572  p :     0.022541
      px      :     0.010776
      py      :     0.004193

 10 H s       :     0.951913  s :     0.951913
      pz      :     0.005324  p :     0.023751
      px      :     0.009088
      py      :     0.009339

 11 H s       :     0.960522  s :     0.960522
      pz      :     0.004175  p :     0.021969
      px      :     0.003660
      py      :     0.014134

 12 H s       :     0.973052  s :     0.973052
      pz      :     0.012827  p :     0.022315
      px      :     0.004149
      py      :     0.005339



                     *******************************
                     * LOEWDIN POPULATION ANALYSIS *
                     *******************************

----------------------
LOEWDIN ATOMIC CHARGES
----------------------
   0 C :   -0.045515
   1 C :   -0.059858
   2 H :    0.028613
   3 H :    0.021071
   4 H :    0.029219
   5 C :    0.081418
   6 O :   -0.149553
   7 C :   -0.079185
   8 H :    0.044380
   9 H :    0.035633
  10 H :    0.035304
  11 H :    0.033374
  12 H :    0.025098

-------------------------------
LOEWDIN REDUCED ORBITAL CHARGES
-------------------------------
  0 C s       :     2.841798  s :     2.841798
      pz      :     1.052217  p :     3.132104
      px      :     1.023604
      py      :     1.056282
      dz2     :     0.019816  d :     0.071614
      dxz     :     0.013584
      dyz     :     0.007507
      dx2y2   :     0.022756
      dxy     :     0.007951

  1 C s       :     2.854231  s :     2.854231
      pz      :     1.038821  p :     3.121984
      px      :     1.023920
      py      :     1.059244
      dz2     :     0.021845  d :     0.083643
      dxz     :     0.016324
      dyz     :     0.008894
      dx2y2   :     0.025197
      dxy     :     0.011382

  2 H s       :     0.907216  s :     0.907216
      pz      :     0.015427  p :     0.064171
      px      :     0.034269
      py      :     0.014475

  3 H s       :     0.914918  s :     0.914918
      pz      :     0.012214  p :     0.064011
      px      :     0.012177
      py      :     0.039619

  4 H s       :     0.906407  s :     0.906407
      pz      :     0.037521  p :     0.064374
      px      :     0.011998
      py      :     0.014855

  5 C s       :     2.890238  s :     2.890238
      pz      :     0.854706  p :     2.814514
      px      :     0.973992
      py      :     0.985816
      dz2     :     0.027879  d :     0.213830
      dxz     :     0.040642
      dyz     :     0.039467
      dx2y2   :     0.067693
      dxy     :     0.038150

  6 O s       :     3.547725  s :     3.547725
      pz      :     1.365037  p :     4.570666
      px      :     1.601118
      py      :     1.604512
      dz2     :     0.005081  d :     0.031162
      dxz     :     0.006881
      dyz     :     0.008229
      dx2y2   :     0.004323
      dxy     :     0.006648

  7 C s       :     2.853109  s :     2.853109
      pz      :     1.063220  p :     3.159238
      px      :     1.058735
      py      :     1.037283
      dz2     :     0.018048  d :     0.066838
      dxz     :     0.010987
      dyz     :     0.006298
      dx2y2   :     0.011634
      dxy     :     0.019871

  8 H s       :     0.889851  s :     0.889851
      pz      :     0.038232  p :     0.065769
      px      :     0.014077
      py      :     0.013460

  9 H s       :     0.898782  s :     0.898782
      pz      :     0.020420  p :     0.065585
      px      :     0.031774
      py      :     0.013391

 10 H s       :     0.898778  s :     0.898778
      pz      :     0.012966  p :     0.065919
      px      :     0.025658
      py      :     0.027295

 11 H s       :     0.900952  s :     0.900952
      pz      :     0.011466  p :     0.065675
      px      :     0.012376
      py      :     0.041833

 12 H s       :     0.909416  s :     0.909416
      pz      :     0.037063  p :     0.065485
      px      :     0.013701
      py      :     0.014722



                      *****************************
                      * MAYER POPULATION ANALYSIS *
                      *****************************

  NA   - Mulliken gross atomic population
  ZA   - Total nuclear charge
  QA   - Mulliken gross atomic charge
  VA   - Mayer's total valence
  BVA  - Mayer's bonded valence
  FA   - Mayer's free valence

  ATOM       NA         ZA         QA         VA         BVA        FA
  0 C      6.0160     6.0000    -0.0160     4.0373     4.0373     0.0000
  1 C      5.9678     6.0000     0.0322     3.9145     3.9145     0.0000
  2 H      0.9749     1.0000     0.0251     0.9822     0.9822     0.0000
  3 H      0.9858     1.0000     0.0142     0.9899     0.9899     0.0000
  4 H      0.9709     1.0000     0.0291     0.9881     0.9881     0.0000
  5 C      6.0351     6.0000    -0.0351     4.2988     4.2988    -0.0000
  6 O      8.2009     8.0000    -0.2009     2.2651     2.2651     0.0000
  7 C      5.9616     6.0000     0.0384     3.8361     3.8361     0.0000
  8 H      0.9648     1.0000     0.0352     0.9952     0.9952     0.0000
  9 H      0.9688     1.0000     0.0312     1.0158     1.0158     0.0000
 10 H      0.9757     1.0000     0.0243     0.9997     0.9997     0.0000
 11 H      0.9825     1.0000     0.0175     1.0024     1.0024     0.0000
 12 H      0.9954     1.0000     0.0046     0.9816     0.9816     0.0000

  Mayer bond orders larger than 0.100000
B(  0-C ,  1-C ) :   1.0949 B(  0-C ,  2-H ) :   0.9675 B(  0-C ,  3-H ) :   0.9708 
B(  0-C ,  4-H ) :   0.9692 B(  1-C ,  5-C ) :   0.9756 B(  1-C , 11-H ) :   0.9265 
B(  1-C , 12-H ) :   0.9340 B(  5-C ,  6-O ) :   2.1732 B(  5-C ,  7-C ) :   1.0178 
B(  7-C ,  8-H ) :   0.9417 B(  7-C ,  9-H ) :   0.9546 B(  7-C , 10-H ) :   0.9511 


-------
TIMINGS
-------

Total SCF time: 0 days 0 hours 0 min 6 sec 

Total time                  ....       6.358 sec
Sum of individual times     ....       5.936 sec  ( 93.4%)

SCF preparation             ....       0.220 sec  (  3.5%)
Fock matrix formation       ....       5.501 sec  ( 86.5%)
  Startup                   ....       0.007 sec  (  0.1% of F)
  Split-RI-J                ....       0.452 sec  (  8.2% of F)
  Chain of spheres X        ....       4.058 sec  ( 73.8% of F)
  XC integration            ....       1.230 sec  ( 22.4% of F)
    XC Preparation          ....       0.000 sec  (  0.0% of XC)
    Basis function eval.    ....       0.404 sec  ( 32.9% of XC)
    Density eval.           ....       0.217 sec  ( 17.6% of XC)
    XC-Functional eval.     ....       0.084 sec  (  6.8% of XC)
    XC-Potential eval.      ....       0.245 sec  ( 19.9% of XC)
Diagonalization             ....       0.000 sec  (  0.0%)
Density matrix formation    ....       0.029 sec  (  0.5%)
Total Energy calculation    ....       0.016 sec  (  0.3%)
Population analysis         ....       0.017 sec  (  0.3%)
Orbital Transformation      ....       0.015 sec  (  0.2%)
Orbital Orthonormalization  ....       0.000 sec  (  0.0%)
DIIS solution               ....       0.082 sec  (  1.3%)
SOSCF solution              ....       0.056 sec  (  0.9%)
Finished LeanSCF after   6.4 sec

Maximum memory used throughout the entire LEANSCF-calculation: 9.8 MB


-------------------------------------------------------------------------------
                          DFT DISPERSION CORRECTION                            
                                                                               
                              DFTD3 V3.1  Rev 1                                
                          USING Becke-Johnson damping                          
-------------------------------------------------------------------------------
The B3LYP functional is recognized
Active option DFTDOPT                   ...         4   

molecular C6(AA) [au] = 1254.645992 


            DFT-D V3
 parameters
 s6 scaling factor         :     1.0000 
 a1 scaling factor         :     0.3981 
 s8 scaling factor         :     1.9889 
 a2 scaling factor         :     4.4211 
 ad hoc parameters k1-k3   :    16.0000     1.3333    -4.0000 

 Edisp/kcal,au: -9.381259475016  -0.014949986992 
 E6   /kcal   :  -4.606404458 
 E8   /kcal   :  -4.774855017 
 % E8         :  50.897803541 

-------------------------   ----------------
Dispersion correction           -0.014949987
-------------------------   ----------------


-------------------------   --------------------
FINAL SINGLE POINT ENERGY      -232.165502434549
-------------------------   --------------------



           ************************************************************
           *        Program running with 6 parallel MPI-processes     *
           *              working on a common directory               *
           ************************************************************
------------------------------------------------------------------------------
                         ORCA SCF GRADIENT CALCULATION
------------------------------------------------------------------------------

Nuc. rep. gradient        (SHARK) ... done (  0.0 sec)
HCore & Overlap gradient  (SHARK) ... done (  0.0 sec)
Split-RIJ-J gradient      (SHARK) ... done (  0.2 sec)
done (  2.9 sec)
XC gradient                       ... done (  0.6 sec)
Dispersion correction             ... done (  0.1 sec)

-------------------
DISPERSION GRADIENT
-------------------

   1   C   :    0.000472691    0.000063759    0.000095939
   2   C   :    0.000171312    0.000216323   -0.000070305
   3   H   :    0.000216729    0.000005215    0.000027759
   4   H   :    0.000289130   -0.000109785    0.000087198
   5   H   :    0.000239817    0.000022686    0.000174203
   6   C   :   -0.000284442    0.000069153   -0.000016330
   7   O   :   -0.000387288    0.000277993    0.000225270
   8   C   :   -0.000406304   -0.000271943   -0.000073186
   9   H   :   -0.000173451   -0.000158684   -0.000129819
  10   H   :   -0.000160280   -0.000134713    0.000013257
  11   H   :   -0.000142192   -0.000284759   -0.000040487
  12   H   :    0.000052840    0.000209252   -0.000078036
  13   H   :    0.000111437    0.000095504   -0.000215463

Difference to translation invariance:
           :    0.0000000000   -0.0000000000    0.0000000000

Difference to rotation invariance:
           :   -0.0000000000    0.0000000000   -0.0000000000

Norm of the Dispersion gradient    ...    0.0012268916
RMS gradient                       ...    0.0001964599
MAX gradient                       ...    0.0004726907

------------------
CARTESIAN GRADIENT
------------------

   1   C   :   -0.000140094   -0.000091595   -0.000022219
   2   C   :    0.000022059    0.000091595    0.000063567
   3   H   :    0.000081765    0.000015054    0.000027023
   4   H   :    0.000050861   -0.000010255   -0.000028771
   5   H   :    0.000036514   -0.000006842   -0.000045512
   6   C   :    0.000042026   -0.000105989   -0.000028934
   7   O   :   -0.000141289   -0.000025545   -0.000081563
   8   C   :    0.000031550    0.000015438   -0.000027246
   9   H   :    0.000022688    0.000057711    0.000048950
  10   H   :    0.000018567    0.000076085    0.000100446
  11   H   :   -0.000015014   -0.000051679    0.000007393
  12   H   :    0.000035975    0.000008854   -0.000013043
  13   H   :   -0.000045607    0.000027169   -0.000000091

Difference to translation invariance:
           :   -0.0000000001    0.0000000001    0.0000000001

Difference to rotation invariance:
           :   -0.0000043192    0.0001883252   -0.0001269136

Norm of the Cartesian gradient     ...    0.0003590220
RMS gradient                       ...    0.0000574895
MAX gradient                       ...    0.0001412893

-------
TIMINGS
-------

Total SCF gradient time     ....        3.748 sec

Densities                   ....       0.000 sec  (  0.0%)
One electron gradient       ....       0.028 sec  (  0.8%)
RI-J Coulomb gradient       ....       0.196 sec  (  5.2%)
COSX gradient               ....       2.885 sec  ( 77.0%)
XC gradient                 ....       0.587 sec  ( 15.7%)

Maximum memory used throughout the entire SCFGRAD-calculation: 27.5 MB


           ************************************************************
           *        Program running with 6 parallel MPI-processes     *
           *              working on a common directory               *
           ************************************************************

------------------------------------------------------------------------------
                              ORCA PROPERTY CALCULATIONS
------------------------------------------------------------------------------

GBWName                                 ... orca.gbw
Number of atoms                         ...     13
Number of basis functions               ...    110
Max core memory                         ...   4096 MB

Electric properties:
Dipole moment                           ... YES
Quadrupole moment                       ...  NO
Static polarizability (Dipole/Dipole)   ...  NO
Static polarizability (Dipole/Quad.)    ...  NO
Static polarizability (Quad./Quad.)     ...  NO
Static polarizability (Velocity)        ...  NO
Static hyperpolarizability              ...  NO

Atomic electric properties:
Dipole moment                           ...  NO
Quadrupole moment                       ...  NO
Static polarizability                   ...  NO

Choice of electric origin               ... Center of mass
Position of electric origin             ...     0.050846     0.042578     0.338376

General magnetic properties:
Magnetizability                         ...  NO

EPR properties:
g-Tensor (aka g-matrix)                 ...  NO
Zero-Field splitting spin-orbit         ...  NO
Zero-field splitting spin-spin          ...  NO
Hyperfine couplings                     ...  NO (   0 nuclei)
Quadrupole couplings                    ...  NO (   0 nuclei)
Contact density                         ...  NO (   0 nuclei)

NMR properties:
Chemical shifts                         ...  NO (   0 nuclei)
Spin-rotation constants                 ...  NO (   0 nuclei)
Spin-spin couplings                     ...  NO (   0 nuclei,    0 pairs)

Choice of magnetic origin               ... GIAO
Position of magnetic origin             ...     0.000000     0.000000     0.000000

Properties with geometric perturbations:
SCF Hessian                             ...  NO
IR spectrum                             ...  NO
VCD spectrum                            ...  NO
X-ray spectroscopy properties:
SCF XES/XAS/RIXS spectra                ...  NO

SCF SOC stabilization energy            ...  NO
Diagonal Born-Oppenheimer correction    ...  NO

-------------
DIPOLE MOMENT
-------------

Method             : SCF
Type of density    : Electron Density
Multiplicity       :   1
Irrep              :   0
Energy             :  -232.1505524475579705 Eh
Basis              : AO
                                X                 Y                 Z
Electronic contribution:     -3.988157141       2.832914832       1.572323718
Nuclear contribution   :      4.607652933      -3.460768599      -2.203802556
                        -----------------------------------------
Total Dipole Moment    :      0.619495792      -0.627853767      -0.631478838
                        -----------------------------------------
Magnitude (a.u.)       :      1.084776895
Magnitude (Debye)      :      2.757283743



--------------------
Rotational spectrum 
--------------------
 
Rotational constants in cm-1:             0.251619             0.126160             0.099910 
Rotational constants in MHz :          7543.349172          3782.173392          2995.239481 

Dipole components along the rotational axes: 
x,y,z [a.u.] :     0.540141    -0.910157    -0.237915 
x,y,z [Debye]:     1.372928    -2.313435    -0.604732 

 

Dipole moment calculation done in   0.0 sec 

Maximum memory used throughout the entire PROP-calculation: 5.6 MB

--------------------------------
SUGGESTED CITATIONS FOR THIS RUN
--------------------------------

Below you find a list of papers that are relevant to this ORCA run
We neither can nor want to force you to cite these papers, but we appreciate if you do
You receive ORCA, which is the product of decades of hard work by many enthusiastic individuals, for free
The only thing we kindly ask in return is that you cite our papers,
We deeply appreciate it, if you show your appreciation for ORCA by not just citing the generic ORCA reference.

Please note that relegating all ORCA citations to the supporting information does *not* help us.
SI sections are not indexed - citations you put there will not count into any citation statistics
But we need these citations in order to attract the funding resources that allow us to do what we are doing

Therefore, if you are a happy ORCA user, please consider citing a few of the papers listed below in the main body of your paper

In addition to the list printed below, the program has created the file orca.bibtex that contains the list in bibtex format
You can import this file easily into all common literature databanks and citation aid programs


List of essential papers. We consider these as the minimum necessary citations

  1. Neese, F.
     Software update: the ORCA program system, version 6.0
     WIRES Comput. Molec. Sci. 2025 15(1), e70019
     doi.org/10.1002/wcms.7019

List of papers to cite with high priority. The work reported in these papers was absolutely
necessary for this run to complete.
Our perspective: the developers of density functionals and basis sets usually get cited in chemistry papers
Good! But without the algorithms to do something with them, the functionals or basis sets would not do anything.
Hence, in our opinion, the algorithm design and method developments papers are equally worthy of getting cited

  1. Neese, F.
     An improvement of the resolution of the identity approximation for the formation of the Coulomb matrix
     J. Comp. Chem. 2003 24(14), 1740-1747
     doi.org/10.1002/jcc.10318
  2. Neese, F.; Wennmohs, F.; Hansen, A.; Becker, U.
     Efficient, approximate and parallel Hartree-Fock and hybrid DFT calculations. A 'chain-of-spheres' algorithm for the Hartree-Fock exchange
     Chem. Phys. 2009 356(1-3), 98-109
     doi.org/10.1016/j.chemphys.2008.10.036
  3. Grimme, S.; Antony, J.; Ehrlich, S.; Krieg, H.
     A consistent and accurate ab initio parametrization of density functional dispersion correction (DFT-D) for the 94 elements H-Pu
     J. Chem. Phys. 2010 132 , 154104
     doi.org/10.1063/1.3382344
  4. Grimme, S.; Ehrlich, S.; Goerigk, L.
     Effect of the damping function in dispersion corrected density functional theory
     J. Comput. Chem. 2011 32(7), 1456-1465
     doi.org/10.1002/jcc.21759
  5. Helmich-Paris, B.; de Souza, B.; Neese, F.; Izsák, R.
     An improved chain of spheres for exchange algorithm
     J. Chem. Phys. 2021 155(10), 104109
     doi.org/10.1063/5.0058766
  6. Neese, F.
     The SHARK Integral Generation and Digestion System
     J. Comp. Chem. 2022 44(3), 381
     doi.org/10.1002/jcc.26942

List of suggested additional citations. These are papers that are important in the 'surrounding' of 
of this run, or papers that preceded the highly important papers. If you like your results we are grateful for a citation.

  1. Izsak, R.; Neese, F.
     An overlap fitted chain of spheres exchange method
     J. Chem. Phys. 2011 135 , 144105
     doi.org/10.1063/1.3646921
  2. Izsak, R.; Hansen, A.; Neese, F.
     The resolution of identity and chain of spheres approximations for the LPNO-CCSD singles Fock term
     Molec. Phys. 2012 110 , 2413-2417
     doi.org/10.1080/00268976.2012.687466
  3. Neese, F.
     The ORCA program system
     WIRES Comput. Molec. Sci. 2012 2(1), 73-78
     doi.org/10.1002/wcms.81
  4. Izsak, R.; Neese, F.; Klopper, W.
     Robust fitting techniques in the chain of spheres approximation to the Fock exchange: The role of the complementary space
     J. Chem. Phys. 2013 139 , 
     doi.org/10.1063/1.4819264
  5. Neese, F.
     Software update: the ORCA program system, version 4.0
     WIRES Comput. Molec. Sci. 2018 8(1), 1-6
     doi.org/10.1002/wcms.1327
  6. Neese, F.; Wennmohs, F.; Becker, U.; Riplinger, C.
     The ORCA quantum chemistry program package
     J. Chem. Phys. 2020 152(22), 224108
     doi.org/10.1063/5.0004608
  7. Neese, F.
     Software update: The ORCA program system—Version 5.0
     WIRES Comput. Molec. Sci. 2022 12(1), e1606
     doi.org/10.1002/wcms.1606

List of optional additional citations

  1. Neese, F.
     Approximate second-order SCF convergence for spin unrestricted wavefunctions
     Chem. Phys. Lett. 2000 325(1-3), 93-98
     doi.org/10.1016/s0009-2614(00)00662-x

Timings for individual modules:

Sum of individual times          ...       13.176 sec (=   0.220 min)
Startup calculation              ...        1.123 sec (=   0.019 min)   8.5 %
SCF iterations                   ...        7.429 sec (=   0.124 min)  56.4 %
Property calculations            ...        0.432 sec (=   0.007 min)   3.3 %
SCF Gradient evaluation          ...        4.192 sec (=   0.070 min)  31.8 %
                             ****ORCA TERMINATED NORMALLY****
TOTAL RUN TIME: 0 days 0 hours 0 minutes 13 seconds 726 msec
