
                                 *****************
                                 * O   R   C   A *
                                 *****************

                                            #,                                       
                                            ###                                      
                                            ####                                     
                                            #####                                    
                                            ######                                   
                                           ########,                                 
                                     ,,################,,,,,                         
                               ,,#################################,,                 
                          ,,##########################################,,             
                       ,#########################################, ''#####,          
                    ,#############################################,,   '####,        
                  ,##################################################,,,,####,       
                ,###########''''           ''''###############################       
              ,#####''   ,,,,##########,,,,          '''####'''          '####       
            ,##' ,,,,###########################,,,                        '##       
           ' ,,###''''                  '''############,,,                           
         ,,##''                                '''############,,,,        ,,,,,,###''
      ,#''                                            '''#######################'''  
     '                                                          ''''####''''         
             ,#######,   #######,   ,#######,      ##                                
            ,#'     '#,  ##    ##  ,#'     '#,    #''#        ,####,    ,#,          
            ##       ##  ##   ,#'  ##            #'  '#       #'       ,# #          
            ##       ##  #######   ##           ,######,      #####,      #          
            '#,     ,#'  ##    ##  '#,     ,#' ,#      #,     #,   #      #          
             '#######'   ##     ##  '#######'  #'      '#     '####' #    #          



                #########################################################
                #                        -***-                          #
                #          Department of theory and spectroscopy        #
                #                                                       #
                #                      Frank Neese                      #
                #                                                       #
                #     Directorship, Architecture, Infrastructure        #
                #                    SHARK, DRIVERS                     #
                #        Core code/Algorithms in most modules           #
                #                                                       #
                #        Max Planck Institute fuer Kohlenforschung      #
                #                Kaiser Wilhelm Platz 1                 #
                #                 D-45470 Muelheim/Ruhr                 #
                #                      Germany                          #
                #                                                       #
                #                  All rights reserved                  #
                #                        -***-                          #
                #########################################################


                         Program Version 6.1.0  -  RELEASE   -
                                (GIT: $679e74b$)
                          ($2025-06-10 18:02:51 +0200$)


 With contributions from (in alphabetic order):
[Max-Planck-Institut fuer Kohlenforschung]                               
  Daniel Aravena         : Magnetic Suceptibility                        
  Michael Atanasov       : Ab Initio Ligand Field Theory (pilot matlab implementation)
  Alexander A. Auer      : GIAO ZORA, VPT2 properties, NMR spectrum      
  Ute Becker             : All parallelization in ORCA, NUMFREQ, NUMCALC 
  Giovanni Bistoni       : ED, misc. LED, open-shell LED, HFLD           
  Dmytro Bykov           : pre 5.0 version of the SCF Hessian            
  Marcos Casanova-Páez   : Triplet and SCS-CIS(D). UHF-(DLPNO)-IP/EA/STEOM-CCSD. UHF-CVS-IP/STEOM-CCSD   
  Vijay G. Chilkuri      : MRCI spin determinant printing, contributions to CSF-ICE 
  Pauline Colinet        : FMM embedding                                 
  Dipayan Datta          : RHF DLPNO-CCSD density                        
  Achintya Kumar Dutta   : EOM-CC, STEOM-CC                              
  Nicolas Foglia         : Exact transition moments, OPA infrastructure, MCD improvements    
  Dmitry Ganyushin       : Spin-Orbit,Spin-Spin,Magnetic field MRCI      
  Miquel Garcia-Rates    : C-PCM and meta-GGA Hessian, CCSD/C-PCM, Gaussian charge scheme 
  Tiago L. C. Gouveia    : GS-ROHF, GS-ROCIS                             
  Yang Guo               : DLPNO-NEVPT2, F12-NEVPT2, CIM, IAO-localization        
  Andreas Hansen         : Spin unrestricted coupled pair/coupled cluster methods 
  Ingolf Harden          : AUTO-CI MPn and infrastructure                
  Benjamin Helmich-Paris : MC-RPA, TRAH-(SCF,CASSCF), AVAS, COSX integrals, SCF dyn. polar., MC-PDFT, srDFT 
  Lee Huntington         : MR-EOM, pCC                                   
  Robert Izsak           : Overlap fitted RIJCOSX, COSX-SCS-MP3, EOM     
  Riya Kayal             : Wick's Theorem for AUTO-CI, AUTO-CI UHF-CCSDT 
  Emily Kempfer          : AUTO-CI RHF CISDT and CCSDT, approximate NEVPT4
  Christian Kollmar      : KDIIS, OOCD, Brueckner-CCSD(T), CCSD density, CASPT2, CASPT2-K, improved NEVPT2 
  Axel Koslowski         : Symmetry handling                             
  Simone Kossmann        : meta-GGA functionals, TD-DFT gradient, OOMP2, (MP2 Hessian; deprecated post 5.0) 
  Lucas Lang             : DCDCAS, Hyperfine gauge corrections, ICE-SOC+SSC
  Marvin Lechner         : AUTO-CI (C++ implementation), FIC-MRCC        
  Spencer Leger          : CASSCF response                               
  Dagmar Lenk            : GEPOL surface, SMD, ORCA-2-JSON               
  Dimitrios Liakos       : Extrapolation schemes; Compound Job, Property file
  Dimitrios Manganas     : Further ROCIS development; embedding schemes. LFT, Crystal Embedding 
  Dimitrios Pantazis     : SARC Basis sets                               
  Anastasios Papadopoulos: AUTO-CI, single reference methods and gradients 
  Taras Petrenko         : pre 6.0 DFT Hessian and TD-DFT gradient,  ECA, NRVS 
  Petra Pikulova         : Analytic Raman intensities                    
  Peter Pinski           : DLPNO-MP2, DLPNO-MP2 Gradient                 
  Shashank Vittal Rao    : ES-AILFT, MagRelax                            
  Christoph Reimann      : Effective Core Potentials                     
  Marius Retegan         : Local ZFS, SOC                                
  Christoph Riplinger    : Optimizer, TS searches, QM/MM, DLPNO-CCSD(T), (RO)-DLPNO pert. Triples 
  Michael Roemelt        : Original ROCIS implementation, recursive CI coupling coefficients
  Masaaki Saitow         : Open-shell DLPNO-CCSD energy and density      
  Barbara Sandhoefer     : DKH picture change effects                    
  Yorick L. A. Schmerwitz: GMF and freeze-and-release deltaSCF, NEB S-IDPP initial path                    
  Kantharuban Sivalingam : CASSCF convergence/infrastructure, NEVPT2, NEVPT3, NEVPT4(SD), FIC-MRCI and CEPA variants
  Bernardo de Souza      : ESD, SOC TD-DFT                               
  Georgi L. Stoychev     : AutoAux, RI-MP2 NMR, DLPNO-MP2 response, X2C  
  Van Anh Tran           : RI-MP2 g-tensors                              
  Willem Van den Heuvel  : Paramagnetic NMR                              
  Zikuan Wang            : NOTCH, Electric field optimization            
  Frank Wennmohs         : Technical directorship and infrastructure     
  Hang Xu                : AUTO-CI-Response properties                   
                                                                         
[FACCTs GmbH]                                                            
  Markus Bursch, Nicolas Foglia, Miquel Garcia-Rates, Ingolf Harden, Hagen Neugebauer, Anastasios Papadopoulos, 
  Christoph Riplinger, Bernardo de Souza, Georgi L. Stoychev                                                    
                                                                 
  APM, various basis sets, CI-OPT, improved COSX, DLPNO-Multilevel,           
  DOCKER, DRACO, updates on ESD, Fragmentator, GOAT, IRC, LR-CPCM, L-BFGS, MBIS, meta-GGA TD-DFT gradient, ML-optimized integration grids, 
  MM, NACMEs, nearIR, NEB, NEB-TS, NL-DFT gradient (VV10), 2- and 3-layer-ONIOM, interface openCOSMO-RS, QMMM,   
  Crystal-QMMM, RESP, rigid body optimization, SF, symmetry and pop. for TD-DFT, various functionals, SOLVATOR                                   
                                                                         
[Other institutions]                                                     
  V. Asgeirsson          : NEB                                           
  Christoph Bannwarth    : sTDA-DFT, sTD-DFT, PBEh-3c, B97-3c, D3        
  Giovanni Bistoni       : ETS/NOCV, ADLD/ADEX, COVALED                  
  Martin Brehm           : Molecular dynamics                            
  Ronald Cardenas        : ETS/NOCV                                      
  Martina Colucci        : COVALED                                       
  Sebastian Ehlert       : rSCAN, r2SCAN, r2SCAN-3c, D4, dhf basis sets  
  Marvin Friede          : D4 for Fr, Ra, Ac-Lr                          
  Lars Goerigk           : TD-DFT with DH, B97 family of functionals     
  Stefan Grimme          : VdW corrections, initial TS optimization, DFT functionals, gCP, sTDA/sTD-DF 
  Waldemar Hujo          : DFT-NL                                        
  H. Jonsson             : NEB                                           
  Holger Kruse           : gCP                                           
  Marcel Mueller         : wB97X-3c, vDZP basis set                      
  Hagen Neugebauer       : wr2SCAN, Native XTB                           
  Gianluca Regni         : ADLD/ADEX                                     
  Tobias Risthaus        : pre 6.0 range-separated hybrid DFT and stability analysis
  Lukas Wittmann         : regularized MP2, r2SCAN double-hybrids, wr2SCAN        
                                                                         
We gratefully acknowledge several colleagues who have allowed us to      
interface, adapt or use parts of their codes:                            
  Ed Valeev, F. Pavosevic, A. Kumar             : LibInt (2-el integral package), F12 methods 
  Garnet Chan, S. Sharma, J. Yang, R. Olivares  : DMRG                   
  Ulf Ekstrom                                   : XCFun DFT Library      
  Mihaly Kallay                                 : mrcc  (arbitrary order and MRCC methods)
  Frank Weinhold                                : gennbo (NPA and NBO analysis)           
  Simon Mueller                                 : openCOSMO-RS                            
  Christopher J. Cramer and Donald G. Truhlar   : smd solvation model                     
  S Lehtola, MJT Oliveira, MAL Marques          : LibXC Library                           
  Liviu Ungur et al                             : ANISO software                          


 Your calculation uses the libint2 library for the computation of 2-el integrals
 For citations please refer to: http://libint.valeyev.net

 Your ORCA version has been built with support for libXC version: 7.0.0
 For citations please refer to: https://libxc.gitlab.io

 This ORCA versions uses:
   CBLAS   interface :  Fast vector & matrix operations
   LAPACKE interface :  Fast linear algebra routines
   SCALAPACK package :  Parallel linear algebra routines
   Shared memory     :  Shared parallel matrices
   BLAS/LAPACK       :  OpenBLAS 0.3.29  USE64BITINT DYNAMIC_ARCH NO_AFFINITY Zen SINGLE_THREADED
        Core in use  :  Zen
   Copyright (c) 2011-2014, The OpenBLAS Project


  ***********************************
  * Starting time: Wed Sep 10 13:35:33 2025
  * Host name:     wyk-Server
  * Process ID:    2292063
  * Working dir.:  /home/wyk/Documents/code/openQDC/MGMR/singlepointcalc/49/prod
  ***********************************

Your calculation utilizes the atom-pairwise dispersion correction
with the Becke-Johnson damping scheme (D3BJ)


Warning: RI is on but no J-basis has been assigned. Assigning Def2/J (nothing to worry about!)
================================================================================

----- Orbital basis set information -----
Your calculation utilizes the basis: def2-SVP
   F. Weigend and R. Ahlrichs, Phys. Chem. Chem. Phys. 7, 3297 (2005).

----- AuxJ basis set information -----
Your calculation utilizes the auxiliary basis: def2/J
   H-Rn: F. Weigend, Phys. Chem. Chem. Phys. 8, 1057 (2006).
   Fr-Lr: K. Eichkorn, F. Weigend, O. Treutler, R. Ahlrichs; Theor. Chem. Acc. 97, 119 (1997).

================================================================================
                                        WARNINGS
                       Please study these warnings very carefully!
================================================================================


================================================================================
                                       INPUT FILE
================================================================================
NAME = orca.inp
|  1> ! B3LYP def2-SVP d3 EnGrad 
|  2> %pal nprocs 6 end 
|  3> *xyz 0 1 
|  4> C   2.08812557812117 0.72448315118335 0.07042864719308
|  5> C   0.61728856194107 0.52756076910603 0.31456559027643
|  6> C   -0.08268509226601 -0.76787991952197 0.2624698939223
|  7> C   0.56891707655902 -2.08998992821692 -0.03772746744637
|  8> O   -0.19358211631838 0.17112752402523 -0.82207493440155
|  9> H   2.26034494047081 1.68782842453599 -0.43618223305509
| 10> H   2.51394743272638 -0.06948442813898 -0.55809334646914
| 11> H   2.6320186216116 0.74862048545469 1.02903976090983
| 12> H   0.83956476582153 -2.602230502807 0.90038678718695
| 13> H   1.47343598062674 -1.97398046615388 -0.65026349239182
| 14> H   -0.1303021497851 -2.74227858569088 -0.5858560684679
| 15> H   -1.77089882895215 1.06659382806999 -0.33221767575207
| 16> H   0.14048912162676 1.29492526219849 0.94011265356151
| 17> H   -3.18991957363419 0.91439573149593 0.2130867798605
| 18> O   -2.36734445746 1.39601141519502 0.36762334783844
| 19> H   -1.00606786108926 -0.82339276073505 0.85610175723491
| 20> *
| 21> 
| 22>                          ****END OF INPUT****
================================================================================

                     *******************************
                     * Energy+Gradient Calculation *
                     *******************************

---------------------------------
CARTESIAN COORDINATES (ANGSTROEM)
---------------------------------
  C      2.088126    0.724483    0.070429
  C      0.617289    0.527561    0.314566
  C     -0.082685   -0.767880    0.262470
  C      0.568917   -2.089990   -0.037727
  O     -0.193582    0.171128   -0.822075
  H      2.260345    1.687828   -0.436182
  H      2.513947   -0.069484   -0.558093
  H      2.632019    0.748620    1.029040
  H      0.839565   -2.602231    0.900387
  H      1.473436   -1.973980   -0.650263
  H     -0.130302   -2.742279   -0.585856
  H     -1.770899    1.066594   -0.332218
  H      0.140489    1.294925    0.940113
  H     -3.189920    0.914396    0.213087
  O     -2.367344    1.396011    0.367623
  H     -1.006068   -0.823393    0.856102

----------------------------
CARTESIAN COORDINATES (A.U.)
----------------------------
  NO LB      ZA    FRAG     MASS         X           Y           Z
   0 C     6.0000    0    12.011    3.945985    1.369075    0.133091
   1 C     6.0000    0    12.011    1.166506    0.996945    0.594443
   2 C     6.0000    0    12.011   -0.156252   -1.451083    0.495996
   3 C     6.0000    0    12.011    1.075097   -3.949509   -0.071295
   4 O     8.0000    0    15.999   -0.365817    0.323384   -1.553496
   5 H     1.0000    0     1.008    4.271433    3.189533   -0.824265
   6 H     1.0000    0     1.008    4.750672   -0.131307   -1.054644
   7 H     1.0000    0     1.008    4.973794    1.414688    1.944603
   8 H     1.0000    0     1.008    1.586547   -4.917503    1.701484
   9 H     1.0000    0     1.008    2.784390   -3.730282   -1.228820
  10 H     1.0000    0     1.008   -0.246235   -5.182156   -1.107108
  11 H     1.0000    0     1.008   -3.346514    2.015570   -0.627800
  12 H     1.0000    0     1.008    0.265486    2.447054    1.776555
  13 H     1.0000    0     1.008   -6.028074    1.727958    0.402676
  14 O     8.0000    0    15.999   -4.473633    2.638079    0.694707
  15 H     1.0000    0     1.008   -1.901193   -1.555987    1.617798

--------------------------------
INTERNAL COORDINATES (ANGSTROEM)
--------------------------------
 C      0   0   0     0.000000000000     0.00000000     0.00000000
 C      1   0   0     1.503909172692     0.00000000     0.00000000
 C      2   1   0     1.473378313915   125.03105745     0.00000000
 C      3   2   1     1.504220302111   125.03284628     0.24080874
 O      3   2   1     1.438843498656    59.30086880   256.81345739
 H      1   2   3     1.101974685936   109.99535051   145.00128843
 H      1   2   3     1.098521126511   112.16959887    24.83929923
 H      1   2   3     1.102423476258   110.13422811   263.51783950
 H      4   3   2     1.102587380984   110.17367096    94.76189763
 H      4   3   2     1.098550419853   112.03245616   333.56233428
 H      4   3   2     1.102194620934   110.15752815   213.43152855
 H      5   3   2     1.878762371213   100.32479405   265.79202009
 H      2   1   3     1.098860819179   115.17183655   155.08865327
 H     12   5   3     1.527789607161   145.62511805   317.63140400
 O     14  12   5     0.965642293697    38.39368019   127.02798309
 H      3   2   1     1.099143394849   115.11406836   155.05763190

---------------------------
INTERNAL COORDINATES (A.U.)
---------------------------
 C      0   0   0     0.000000000000     0.00000000     0.00000000
 C      1   0   0     2.841976466680     0.00000000     0.00000000
 C      2   1   0     2.784281504958   125.03105745     0.00000000
 C      3   2   1     2.842564416073   125.03284628     0.24080874
 O      3   2   1     2.719020162033    59.30086880   256.81345739
 H      1   2   3     2.082430362934   109.99535051   145.00128843
 H      1   2   3     2.075904081433   112.16959887    24.83929923
 H      1   2   3     2.083278453733   110.13422811   263.51783950
 H      4   3   2     2.083588188778   110.17367096    94.76189763
 H      4   3   2     2.075959437827   112.03245616   333.56233428
 H      4   3   2     2.082845979847   110.15752815   213.43152855
 H      5   3   2     3.550346352309   100.32479405   265.79202009
 H      2   1   3     2.076546007545   115.17183655   155.08865327
 H     12   5   3     2.887103947786   145.62511805   317.63140400
 O     14  12   5     1.824799478419    38.39368019   127.02798309
 H      3   2   1     2.077079998172   115.11406836   155.05763190

---------------------
BASIS SET INFORMATION
---------------------
There are 3 groups of distinct atoms

 Group   1 Type C   : 7s4p1d contracted to 3s2p1d pattern {511/31/1}
 Group   2 Type O   : 7s4p1d contracted to 3s2p1d pattern {511/31/1}
 Group   3 Type H   : 4s1p contracted to 2s1p pattern {31/1}

Atom   0C    basis set group =>   1
Atom   1C    basis set group =>   1
Atom   2C    basis set group =>   1
Atom   3C    basis set group =>   1
Atom   4O    basis set group =>   2
Atom   5H    basis set group =>   3
Atom   6H    basis set group =>   3
Atom   7H    basis set group =>   3
Atom   8H    basis set group =>   3
Atom   9H    basis set group =>   3
Atom  10H    basis set group =>   3
Atom  11H    basis set group =>   3
Atom  12H    basis set group =>   3
Atom  13H    basis set group =>   3
Atom  14O    basis set group =>   2
Atom  15H    basis set group =>   3
---------------------------------
AUXILIARY/J BASIS SET INFORMATION
---------------------------------
There are 3 groups of distinct atoms

 Group   1 Type C   : 12s5p4d2f1g contracted to 6s4p3d1f1g pattern {711111/2111/211/2/1}
 Group   2 Type O   : 12s5p4d2f1g contracted to 6s4p3d1f1g pattern {711111/2111/211/2/1}
 Group   3 Type H   : 5s2p1d contracted to 3s1p1d pattern {311/2/1}

Atom   0C    basis set group =>   1
Atom   1C    basis set group =>   1
Atom   2C    basis set group =>   1
Atom   3C    basis set group =>   1
Atom   4O    basis set group =>   2
Atom   5H    basis set group =>   3
Atom   6H    basis set group =>   3
Atom   7H    basis set group =>   3
Atom   8H    basis set group =>   3
Atom   9H    basis set group =>   3
Atom  10H    basis set group =>   3
Atom  11H    basis set group =>   3
Atom  12H    basis set group =>   3
Atom  13H    basis set group =>   3
Atom  14O    basis set group =>   2
Atom  15H    basis set group =>   3


           ************************************************************
           *        Program running with 6 parallel MPI-processes     *
           *              working on a common directory               *
           ************************************************************
------------------------------------------------------------------------------
                             ORCA STARTUP CALCULATIONS
                           -- RI-GTO INTEGRALS CHOSEN --
------------------------------------------------------------------------------
------------------------------------------------------------------------------
                   ___                                                        
                  /   \      - P O W E R E D   B Y -                         
                 /     \                                                     
                 |  |  |   _    _      __       _____    __    __             
                 |  |  |  | |  | |    /  \     |  _  \  |  |  /  |          
                  \  \/   | |  | |   /    \    | | | |  |  | /  /          
                 / \  \   | |__| |  /  /\  \   | |_| |  |  |/  /          
                |  |  |   |  __  | /  /__\  \  |    /   |      \           
                |  |  |   | |  | | |   __   |  |    \   |  |\   \          
                \     /   | |  | | |  |  |  |  | |\  \  |  | \   \       
                 \___/    |_|  |_| |__|  |__|  |_| \__\ |__|  \__/        
                                                                              
                      - O R C A' S   B I G   F R I E N D -                    
                                      &                                       
                       - I N T E G R A L  F E E D E R -                       
                                                                              
 v1 FN, 2020, v2 2021, v3 2022-2024                                           
------------------------------------------------------------------------------


----------------------
SHARK INTEGRAL PACKAGE
----------------------

Number of atoms                             ...     16
Number of basis functions                   ...    134
Number of shells                            ...     66
Maximum angular momentum                    ...      2
Integral batch strategy                     ... SHARK/LIBINT Hybrid
RI-J (if used) integral strategy            ... SPLIT-RIJ (Revised 2003 algorithm where possible)
Printlevel                                  ...      1
Contraction scheme used                     ... SEGMENTED contraction
Prescreening option                         ... SCHWARTZ
   Thresh                                   ... 2.500e-11
   Tcut                                     ... 2.500e-12
   Tpresel                                  ... 2.500e-12 
Coulomb Range Separation                    ... NOT USED
Exchange Range Separation                   ... NOT USED
Multipole approximations                    ... NOT USED
Finite Nucleus Model                        ... NOT USED
CABS basis                                  ... NOT available
Auxiliary Coulomb fitting basis             ... AVAILABLE
   # of basis functions in Aux-J            ...    404
   # of shells in Aux-J                     ...    140
   Maximum angular momentum in Aux-J        ...      4
Auxiliary J/K fitting basis                 ... NOT available
Auxiliary Correlation fitting basis         ... NOT available
Auxiliary 'external' fitting basis          ... NOT available

Checking pre-screening integrals            ... done (  0.0 sec) Dimension = 66
   => SHARK Basis and OBASIS are compatible. Storing Pre-screening
Shell pair information
Shell pair cut-off parameter TPreSel        ...   2.5e-12
Total number of shell pairs                 ...      2211
Shell pairs after pre-screening             ...      2096
Total number of primitive shell pairs       ...      7611
Primitive shell pairs kept                  ...      5536
          la=0 lb=0:    713 shell pairs
          la=1 lb=0:    788 shell pairs
          la=1 lb=1:    236 shell pairs
          la=2 lb=0:    218 shell pairs
          la=2 lb=1:    122 shell pairs
          la=2 lb=2:     19 shell pairs

Checking whether 4 symmetric matrices of dimension 134 fit in memory
:Max Core in MB      =   4096.00
 MB in use           =      5.98
 MB left             =   4090.02
 MB needed           =      0.28
 Data fit in memory  = YES
Calculating RI/J V-Matrix + Cholesky decomp.... done (  0.0 sec)
Calculating Nuclear repulsion               ... done (  0.0 sec) ENN=    252.723429310742 Eh

Diagonalization of the overlap matrix:
Smallest eigenvalue                        ... 1.240e-03
Time for diagonalization                   ...    0.003 sec
Threshold for overlap eigenvalues          ... 1.000e-07
Number of eigenvalues below threshold      ... 0
Time for construction of square roots      ...    0.001 sec
Total time needed                          ...    0.005 sec

-------------------
DFT GRID GENERATION
-------------------

General Integration Accuracy     IntAcc      ... 4.388
Radial Grid Type                 RadialGrid  ... OptM3 with GC (2021)
Angular Grid (max. ang.)         AngularGrid ... 4 (Lebedev-302)
Angular grid pruning method      GridPruning ... 4 (adaptive)
Weight generation scheme         WeightScheme... mBecke (2022)
Basis function cutoff            BFCut       ... 1.0000e-11
Integration weight cutoff        WCut        ... 1.0000e-14
Partially contracted basis set               ... off
Rotationally invariant grid construction     ... off
Angular grids for H and He will be reduced by one unit

Total number of grid points                  ...    68596
Total number of batches                      ...     1078
Average number of points per batch           ...       63
Average number of grid points per atom       ...     4287

--------------------
COSX GRID GENERATION
--------------------

GRIDX 1
-------
General Integration Accuracy     IntAcc      ... 3.816
Radial Grid Type                 RadialGrid  ... OptM3 with GC (2021)
Angular Grid (max. ang.)         AngularGrid ... 1 (Lebedev-50)
Angular grid pruning method      GridPruning ... 4 (adaptive)
Weight generation scheme         WeightScheme... mBecke (2022)
Basis function cutoff            BFCut       ... 1.0000e-11
Integration weight cutoff        WCut        ... 1.0000e-14
Partially contracted basis set               ... on
Rotationally invariant grid construction     ... off
Angular grids for H and He will be reduced by one unit

Total number of grid points                  ...     8839
Total number of batches                      ...       79
Average number of points per batch           ...      111
Average number of grid points per atom       ...      552
UseSFitting                                  ... on

GRIDX 2
-------
General Integration Accuracy     IntAcc      ... 4.020
Radial Grid Type                 RadialGrid  ... OptM3 with GC (2021)
Angular Grid (max. ang.)         AngularGrid ... 2 (Lebedev-110)
Angular grid pruning method      GridPruning ... 4 (adaptive)
Weight generation scheme         WeightScheme... mBecke (2022)
Basis function cutoff            BFCut       ... 1.0000e-11
Integration weight cutoff        WCut        ... 1.0000e-14
Partially contracted basis set               ... on
Rotationally invariant grid construction     ... off
Angular grids for H and He will be reduced by one unit

Total number of grid points                  ...    18534
Total number of batches                      ...      153
Average number of points per batch           ...      121
Average number of grid points per atom       ...     1158
UseSFitting                                  ... on

GRIDX 3
-------
General Integration Accuracy     IntAcc      ... 4.338
Radial Grid Type                 RadialGrid  ... OptM3 with GC (2021)
Angular Grid (max. ang.)         AngularGrid ... 3 (Lebedev-194)
Angular grid pruning method      GridPruning ... 4 (adaptive)
Weight generation scheme         WeightScheme... mBecke (2022)
Basis function cutoff            BFCut       ... 1.0000e-11
Integration weight cutoff        WCut        ... 1.0000e-14
Partially contracted basis set               ... on
Rotationally invariant grid construction     ... off
Angular grids for H and He will be reduced by one unit

Total number of grid points                  ...    40531
Total number of batches                      ...      323
Average number of points per batch           ...      125
Average number of grid points per atom       ...     2533
UseSFitting                                  ... on
Grids setup in   0.9 sec
Initializing property integral containers    ... done (  0.0 sec)

SHARK setup successfully completed in   1.0 seconds

Maximum memory used throughout the entire STARTUP-calculation: 19.4 MB


           ************************************************************
           *        Program running with 6 parallel MPI-processes     *
           *              working on a common directory               *
           ************************************************************
-------------------------------------------------------------------------------
                                 ORCA GUESS
                   Start orbitals & Density for SCF / CASSCF
-------------------------------------------------------------------------------

------------
SCF SETTINGS
------------
Hamiltonian:
 Density Functional     Method          .... DFT(GTOs)
 Exchange Functional    Exchange        .... B88
   X-Alpha parameter    XAlpha          ....  0.666667
   Becke's b parameter  XBeta           ....  0.004200
 Correlation Functional Correlation     .... LYP
 LDA part of GGA corr.  LDAOpt          .... VWN-5
 Gradients option       PostSCFGGA      .... off
 Hybrid DFT is turned on
   Fraction HF Exchange ScalHFX         ....  0.200000
   Scaling of DF-GGA-X  ScalDFX         ....  0.720000
   Scaling of DF-GGA-C  ScalDFC         ....  0.810000
   Scaling of DF-LDA-C  ScalLDAC        ....  1.000000
   Perturbative correction              ....  0.000000
   NL short-range parameter             ....  4.800000
 RI-approximation to the Coulomb term is turned on
   Number of AuxJ basis functions       .... 404
   RIJ-COSX (HFX calculated with COS-X)).... on


General Settings:
 Integral files         IntName         .... orca
 Hartree-Fock type      HFTyp           .... RHF
 Total Charge           Charge          ....    0
 Multiplicity           Mult            ....    1
 Number of Electrons    NEL             ....   50
 Basis Dimension        Dim             ....  134
 Nuclear Repulsion      ENuc            ....    252.7234293107 Eh

Convergence Acceleration:
 AO-DIIS                CNVDIIS         .... on
   Start iteration      DIISMaxIt       ....    12
   Startup error        DIISStart       ....  0.200000
   # of expansion vecs  DIISMaxEq       ....     5
   Bias factor          DIISBfac        ....   1.050
   Max. coefficient     DIISMaxC        ....  10.000
 MO-DIIS                CNVKDIIS        .... off
 Trust-Rad. Augm. Hess. CNVTRAH         .... auto
   Auto Start mean grad. ratio tolernc. ....  1.125000
   Auto Start start iteration           ....    50
   Auto Start num. interpolation iter.  ....    10
   Max. Number of Micro iterations      ....    24
   Max. Number of Macro iterations      .... Maxiter - #DIIS iter
   Number of Davidson start vectors     ....     2
   Converg. threshold    (grad. norm)   ....   1.000e-05
   Grad. Scal. Fac. for Micro threshold ....   0.100
   Minimum threshold for Micro iter.    ....   1.000e-02
   NR start threshold (gradient norm)   ....   1.000e-04
   Initial trust radius                 ....   0.400
   Minimum AH scaling param. (alpha)    ....   1.000
   Maximum AH scaling param. (alpha)    .... 1000.000
   Quad. conv. algorithm                .... NR
   White noise on init. David. guess    .... on
   Maximum white noise                  ....   0.010
   Pseudo random numbers                .... off
   Inactive MOs                         .... canonical
   Orbital update algorithm             .... Taylor
   Preconditioner                       .... Diag
   Full preconditioner red. dimension   ....   250
 SOSCF                 CNVSOSCF           .... on
   Start iteration     SOSCFMaxIt         ....   150
   Startup grad/error  SOSCFStart         ....  0.003300
   Hessian update      SOSCFHessUp        .... L-BFGS
   Autom. constraints  SOSCFAutoConstrain .... off
 Level Shifting         CNVShift        .... on
   Level shift para.    LevelShift      ....    0.2500
   Turn off err/grad.   ShiftErr        ....    0.0010
 Zerner damping         CNVZerner       .... off
 Static damping         CNVDamp         .... on
   Fraction old density DampFac         ....    0.7000
   Max. Damping (<1)    DampMax         ....    0.9800
   Min. Damping (>=0)   DampMin         ....    0.0000
   Turn off err/grad.   DampErr         ....    0.1000

SCF Procedure:
 Maximum # iterations   MaxIter         ....   125
 SCF integral mode      SCFMode         .... Direct
   Integral package                     .... SHARK and LIBINT hybrid scheme
 Reset frequency        DirectResetFreq ....    20
 Integral Threshold     Thresh          ....  2.500e-11 Eh
 Primitive CutOff       TCut            ....  2.500e-12 Eh

Convergence Tolerance:
 Convergence Check Mode ConvCheckMode   .... Total+1el-Energy
 Convergence forced     ConvForced      .... 0
 Energy Change          TolE            ....  1.000e-08 Eh
 1-El. energy change                    ....  1.000e-05 Eh
 Orbital Gradient       TolG            ....  1.000e-05
 Orbital Rotation angle TolX            ....  1.000e-05
 DIIS Error             TolErr          ....  5.000e-07

------------------------------
INITIAL GUESS: MODEL POTENTIAL
------------------------------
Loading Hartree-Fock densities                     ... done
Calculating cut-offs                               ... done
Initializing the effective Hamiltonian             ... done
Setting up the integral package (SHARK)            ... done
Starting the Coulomb interaction                   ... done (   0.0 sec)
Making the grid                                    ... done (   0.1 sec)
Mapping shells                                     ... done
Starting the XC term evaluation                    ... done (   0.0 sec)
  promolecular density results
     # of electrons  =     49.988924075
     EX              =    -39.914460903
     EC              =     -1.656532026
     EX+EC           =    -41.570992929
Transforming the Hamiltonian                       ... done (   0.0 sec)
Diagonalizing the Hamiltonian                      ... done (   0.0 sec)
Back transforming the eigenvectors                 ... done (   0.0 sec)
Now organizing SCF variables                       ... done
                      ------------------
                      INITIAL GUESS DONE (   0.2 sec)
                      ------------------
             **** ENERGY FILE WAS UPDATED (orca.en.tmp) ****
Finished Guess after   0.3 sec
Maximum memory used throughout the entire GUESS-calculation: 8.5 MB


           ************************************************************
           *        Program running with 6 parallel MPI-processes     *
           *              working on a common directory               *
           ************************************************************

-------------------------------------------------------------------------------------------
                                      ORCA LEAN-SCF
                              memory conserving SCF solver
-------------------------------------------------------------------------------------------

----------------------------------------D-I-I-S--------------------------------------------
Iteration    Energy (Eh)           Delta-E    RMSDP     MaxDP     DIISErr   Damp  Time(sec)
-------------------------------------------------------------------------------------------
               ***  Starting incremental Fock matrix formation  ***
    1    -308.2220025535680747     0.00e+00  9.76e-03  8.81e-02  3.01e-01  0.700   0.8
    2    -308.3277247164813275    -1.06e-01  6.48e-03  4.85e-02  1.26e-01  0.700   0.5
                               ***Turning on AO-DIIS***
    3    -308.3680900587580140    -4.04e-02  2.38e-03  1.53e-02  3.51e-02  0.700   0.4
    4    -308.3921945839371688    -2.41e-02  3.83e-03  1.78e-02  1.64e-02  0.000   0.4
    5    -308.4454817566284532    -5.33e-02  7.45e-04  4.72e-03  5.92e-03  0.000   0.4
                              *** Initializing SOSCF ***
---------------------------------------S-O-S-C-F--------------------------------------
Iteration    Energy (Eh)           Delta-E    RMSDP     MaxDP     MaxGrad    Time(sec)
--------------------------------------------------------------------------------------
    6    -308.4457178181879158    -2.36e-04  2.73e-04  1.80e-03  2.43e-03     0.4
               *** Restarting incremental Fock matrix formation ***
    7    -308.4457232765105914    -5.46e-06  1.70e-04  1.10e-03  2.33e-04     0.8
    8    -308.4457237681796755    -4.92e-07  5.34e-05  4.75e-04  1.68e-04     0.6
    9    -308.4457252047646421    -1.44e-06  1.74e-05  1.11e-04  2.61e-05     0.6
   10    -308.4457252023950673     2.37e-09  5.88e-06  6.01e-05  3.55e-05     0.5
                 **** Energy Check signals convergence ****

               *****************************************************
               *                     SUCCESS                       *
               *           SCF CONVERGED AFTER  10 CYCLES          *
               *****************************************************

Recomputing exchange energy using gridx3       ... done (    1.180 sec)
Old exchange energy                            :     -8.136198328 Eh
New exchange energy                            :     -8.136240307 Eh
Exchange energy change after final integration :     -0.000041979 Eh
Total energy after final integration           :   -308.445767203 Eh
             **** ENERGY FILE WAS UPDATED (orca.en.tmp) ****

----------------
TOTAL SCF ENERGY
----------------

Total Energy       :       -308.44576720306520 Eh           -8393.23603 eV

Components:
Nuclear Repulsion  :        252.72342931074212 Eh            6876.95413 eV
Electronic Energy  :       -561.16915453449440 Eh          -15270.18902 eV
One Electron Energy:       -920.10054350436712 Eh          -25037.20866 eV
Two Electron Energy:        358.93138896987273 Eh            9767.01964 eV

Virial components:
Potential Energy   :       -614.05662132985299 Eh          -16709.33015 eV
Kinetic Energy     :        305.61085412678784 Eh            8316.09412 eV
Virial Ratio       :          2.00927621855702

DFT components:
N(Alpha)           :       25.000013519500 electrons
N(Beta)            :       25.000013519500 electrons
N(Total)           :       50.000027039000 electrons
E(X)               :      -32.312209264306 Eh       
E(C)               :       -1.963390439695 Eh       
E(XC)              :      -34.275599704001 Eh       

---------------
SCF CONVERGENCE
---------------

  Last Energy change         ...   -2.3696e-09  Tolerance :   1.0000e-08
  Last MAX-Density change    ...    6.0095e-05  Tolerance :   1.0000e-07
  Last RMS-Density change    ...    5.8777e-06  Tolerance :   5.0000e-09
  Last DIIS Error            ...    2.4303e-03  Tolerance :   5.0000e-07
  Last Orbital Gradient      ...    3.5498e-05  Tolerance :   1.0000e-05
  Last Orbital Rotation      ...    1.6839e-05  Tolerance :   1.0000e-05


----------------
ORBITAL ENERGIES
----------------

  NO   OCC          E(Eh)            E(eV) 
   0   2.0000     -19.145456      -520.9744 
   1   2.0000     -19.098045      -519.6842 
   2   2.0000     -10.239123      -278.6207 
   3   2.0000     -10.237898      -278.5874 
   4   2.0000     -10.190589      -277.3000 
   5   2.0000     -10.188760      -277.2503 
   6   2.0000      -1.064429       -28.9646 
   7   2.0000      -0.956311       -26.0226 
   8   2.0000      -0.744137       -20.2490 
   9   2.0000      -0.735170       -20.0050 
  10   2.0000      -0.624719       -16.9995 
  11   2.0000      -0.565547       -15.3893 
  12   2.0000      -0.525780       -14.3072 
  13   2.0000      -0.481434       -13.1005 
  14   2.0000      -0.454211       -12.3597 
  15   2.0000      -0.436904       -11.8888 
  16   2.0000      -0.423590       -11.5265 
  17   2.0000      -0.399769       -10.8783 
  18   2.0000      -0.398479       -10.8432 
  19   2.0000      -0.368801       -10.0356 
  20   2.0000      -0.354776        -9.6540 
  21   2.0000      -0.347787        -9.4638 
  22   2.0000      -0.300177        -8.1682 
  23   2.0000      -0.275719        -7.5027 
  24   2.0000      -0.272944        -7.4272 
  25   0.0000       0.056761         1.5446 
  26   0.0000       0.066047         1.7972 
  27   0.0000       0.092599         2.5198 
  28   0.0000       0.097871         2.6632 
  29   0.0000       0.105118         2.8604 
  30   0.0000       0.116666         3.1746 
  31   0.0000       0.129391         3.5209 
  32   0.0000       0.146841         3.9958 
  33   0.0000       0.154610         4.2071 
  34   0.0000       0.156875         4.2688 
  35   0.0000       0.185382         5.0445 
*Only the first 10 virtual orbitals were printed.

                    ********************************
                    * MULLIKEN POPULATION ANALYSIS *
                    ********************************

-----------------------
MULLIKEN ATOMIC CHARGES
-----------------------
   0 C :    0.097816
   1 C :    0.027526
   2 C :    0.016354
   3 C :    0.098037
   4 O :   -0.366715
   5 H :    0.025596
   6 H :    0.003017
   7 H :    0.020821
   8 H :    0.021223
   9 H :    0.005700
  10 H :    0.021539
  11 H :    0.157594
  12 H :    0.033078
  13 H :    0.143641
  14 O :   -0.310332
  15 H :    0.005105
Sum of atomic charges:   -0.0000000

--------------------------------
MULLIKEN REDUCED ORBITAL CHARGES
--------------------------------
  0 C s       :     2.929193  s :     2.929193
      pz      :     0.989275  p :     2.945222
      px      :     0.954605
      py      :     1.001342
      dz2     :     0.004117  d :     0.027769
      dxz     :     0.005939
      dyz     :     0.005740
      dx2y2   :     0.007702
      dxy     :     0.004270

  1 C s       :     3.131557  s :     3.131557
      pz      :     0.829317  p :     2.771332
      px      :     0.939338
      py      :     1.002678
      dz2     :     0.013599  d :     0.069585
      dxz     :     0.018381
      dyz     :     0.011471
      dx2y2   :     0.013638
      dxy     :     0.012497

  2 C s       :     3.131430  s :     3.131430
      pz      :     0.842186  p :     2.782349
      px      :     1.014283
      py      :     0.925880
      dz2     :     0.012351  d :     0.069866
      dxz     :     0.010635
      dyz     :     0.019596
      dx2y2   :     0.013634
      dxy     :     0.013650

  3 C s       :     2.929316  s :     2.929316
      pz      :     0.990590  p :     2.944885
      px      :     0.992009
      py      :     0.962287
      dz2     :     0.003628  d :     0.027762
      dxz     :     0.006376
      dyz     :     0.006055
      dx2y2   :     0.005071
      dxy     :     0.006632

  4 O s       :     3.872872  s :     3.872872
      pz      :     1.399398  p :     4.475524
      px      :     1.651547
      py      :     1.424579
      dz2     :     0.004681  d :     0.018319
      dxz     :     0.004609
      dyz     :     0.005772
      dx2y2   :     0.001766
      dxy     :     0.001492

  5 H s       :     0.950864  s :     0.950864
      pz      :     0.007138  p :     0.023540
      px      :     0.004420
      py      :     0.011982

  6 H s       :     0.973511  s :     0.973511
      pz      :     0.008089  p :     0.023472
      px      :     0.005502
      py      :     0.009880

  7 H s       :     0.955738  s :     0.955738
      pz      :     0.011681  p :     0.023442
      px      :     0.006556
      py      :     0.005204

  8 H s       :     0.955346  s :     0.955346
      pz      :     0.011365  p :     0.023431
      px      :     0.005592
      py      :     0.006473

  9 H s       :     0.970831  s :     0.970831
      pz      :     0.007934  p :     0.023469
      px      :     0.011197
      py      :     0.004339

 10 H s       :     0.954955  s :     0.954955
      pz      :     0.007456  p :     0.023506
      px      :     0.008296
      py      :     0.007754

 11 H s       :     0.769702  s :     0.769702
      pz      :     0.025518  p :     0.072704
      px      :     0.027622
      py      :     0.019564

 12 H s       :     0.945729  s :     0.945729
      pz      :     0.006986  p :     0.021193
      px      :     0.005117
      py      :     0.009090

 13 H s       :     0.785332  s :     0.785332
      pz      :     0.018083  p :     0.071027
      px      :     0.030557
      py      :     0.022387

 14 O s       :     3.685331  s :     3.685331
      pz      :     1.622126  p :     4.614850
      px      :     1.256260
      py      :     1.736464
      dz2     :     0.001981  d :     0.010151
      dxz     :     0.002411
      dyz     :     0.001964
      dx2y2   :     0.000470
      dxy     :     0.003326

 15 H s       :     0.973977  s :     0.973977
      pz      :     0.006743  p :     0.020918
      px      :     0.011503
      py      :     0.002671



                     *******************************
                     * LOEWDIN POPULATION ANALYSIS *
                     *******************************

----------------------
LOEWDIN ATOMIC CHARGES
----------------------
   0 C :   -0.056603
   1 C :    0.061084
   2 C :    0.055277
   3 C :   -0.057130
   4 O :   -0.189945
   5 H :    0.035268
   6 H :    0.026749
   7 H :    0.034130
   8 H :    0.034106
   9 H :    0.027795
  10 H :    0.033330
  11 H :    0.051640
  12 H :    0.021382
  13 H :    0.071991
  14 O :   -0.159058
  15 H :    0.009983

-------------------------------
LOEWDIN REDUCED ORBITAL CHARGES
-------------------------------
  0 C s       :     2.838515  s :     2.838515
      pz      :     1.060517  p :     3.145789
      px      :     1.021831
      py      :     1.063442
      dz2     :     0.010687  d :     0.072299
      dxz     :     0.015438
      dyz     :     0.014918
      dx2y2   :     0.020926
      dxy     :     0.010329

  1 C s       :     2.853338  s :     2.853338
      pz      :     0.885776  p :     2.930786
      px      :     0.994242
      py      :     1.050768
      dz2     :     0.029662  d :     0.154791
      dxz     :     0.037134
      dyz     :     0.025835
      dx2y2   :     0.033978
      dxy     :     0.028184

  2 C s       :     2.853334  s :     2.853334
      pz      :     0.897202  p :     2.935659
      px      :     1.059147
      py      :     0.979311
      dz2     :     0.026761  d :     0.155729
      dxz     :     0.024219
      dyz     :     0.040028
      dx2y2   :     0.031896
      dxy     :     0.032826

  3 C s       :     2.838827  s :     2.838827
      pz      :     1.060377  p :     3.145973
      px      :     1.058237
      py      :     1.027359
      dz2     :     0.009347  d :     0.072330
      dxz     :     0.016457
      dyz     :     0.015976
      dx2y2   :     0.013006
      dxy     :     0.017544

  4 O s       :     3.559309  s :     3.559309
      pz      :     1.481975  p :     4.599865
      px      :     1.659665
      py      :     1.458225
      dz2     :     0.007969  d :     0.030770
      dxz     :     0.007918
      dyz     :     0.009298
      dx2y2   :     0.002991
      dxy     :     0.002594

  5 H s       :     0.900504  s :     0.900504
      pz      :     0.017991  p :     0.064228
      px      :     0.012919
      py      :     0.033318

  6 H s       :     0.907966  s :     0.907966
      pz      :     0.021635  p :     0.065285
      px      :     0.016375
      py      :     0.027275

  7 H s       :     0.901865  s :     0.901865
      pz      :     0.032683  p :     0.064005
      px      :     0.019111
      py      :     0.012211

  8 H s       :     0.901903  s :     0.901903
      pz      :     0.031779  p :     0.063991
      px      :     0.013739
      py      :     0.018473

  9 H s       :     0.906842  s :     0.906842
      pz      :     0.021189  p :     0.065363
      px      :     0.031658
      py      :     0.012517

 10 H s       :     0.902548  s :     0.902548
      pz      :     0.019028  p :     0.064122
      px      :     0.023047
      py      :     0.022047

 11 H s       :     0.751153  s :     0.751153
      pz      :     0.079317  p :     0.197207
      px      :     0.062901
      py      :     0.054989

 12 H s       :     0.909955  s :     0.909955
      pz      :     0.022444  p :     0.068664
      px      :     0.017908
      py      :     0.028312

 13 H s       :     0.751414  s :     0.751414
      pz      :     0.044709  p :     0.176595
      px      :     0.070488
      py      :     0.061398

 14 O s       :     3.435932  s :     3.435932
      pz      :     1.651195  p :     4.704387
      px      :     1.317898
      py      :     1.735295
      dz2     :     0.003009  d :     0.018738
      dxz     :     0.005227
      dyz     :     0.002486
      dx2y2   :     0.001012
      dxy     :     0.007004

 15 H s       :     0.921129  s :     0.921129
      pz      :     0.021703  p :     0.068888
      px      :     0.036375
      py      :     0.010811



                      *****************************
                      * MAYER POPULATION ANALYSIS *
                      *****************************

  NA   - Mulliken gross atomic population
  ZA   - Total nuclear charge
  QA   - Mulliken gross atomic charge
  VA   - Mayer's total valence
  BVA  - Mayer's bonded valence
  FA   - Mayer's free valence

  ATOM       NA         ZA         QA         VA         BVA        FA
  0 C      5.9022     6.0000     0.0978     3.9467     3.9467     0.0000
  1 C      5.9725     6.0000     0.0275     4.0853     4.0853     0.0000
  2 C      5.9836     6.0000     0.0164     4.1090     4.1090    -0.0000
  3 C      5.9020     6.0000     0.0980     3.9415     3.9415    -0.0000
  4 O      8.3667     8.0000    -0.3667     2.0100     2.0100    -0.0000
  5 H      0.9744     1.0000     0.0256     0.9885     0.9885     0.0000
  6 H      0.9970     1.0000     0.0030     1.0055     1.0055    -0.0000
  7 H      0.9792     1.0000     0.0208     0.9889     0.9889    -0.0000
  8 H      0.9788     1.0000     0.0212     0.9889     0.9889     0.0000
  9 H      0.9943     1.0000     0.0057     1.0064     1.0064     0.0000
 10 H      0.9785     1.0000     0.0215     0.9882     0.9882    -0.0000
 11 H      0.8424     1.0000     0.1576     1.0568     1.0568    -0.0000
 12 H      0.9669     1.0000     0.0331     0.9983     0.9983    -0.0000
 13 H      0.8564     1.0000     0.1436     1.0171     1.0171    -0.0000
 14 O      8.3103     8.0000    -0.3103     2.0570     2.0570    -0.0000
 15 H      0.9949     1.0000     0.0051     1.0169     1.0169    -0.0000

  Mayer bond orders larger than 0.100000
B(  0-C ,  1-C ) :   1.0927 B(  0-C ,  5-H ) :   0.9524 B(  0-C ,  6-H ) :   0.9487 
B(  0-C ,  7-H ) :   0.9560 B(  1-C ,  2-C ) :   1.0614 B(  1-C ,  4-O ) :   0.9092 
B(  1-C , 12-H ) :   0.9328 B(  2-C ,  3-C ) :   1.0881 B(  2-C ,  4-O ) :   0.9221 
B(  2-C , 15-H ) :   0.9271 B(  3-C ,  8-H ) :   0.9565 B(  3-C ,  9-H ) :   0.9486 
B(  3-C , 10-H ) :   0.9525 B(  4-O , 11-H ) :   0.1061 B( 11-H , 14-O ) :   0.9471 
B( 13-H , 14-O ) :   1.0032 

-------
TIMINGS
-------

Total SCF time: 0 days 0 hours 0 min 7 sec 

Total time                  ....       7.505 sec
Sum of individual times     ....       6.945 sec  ( 92.5%)

SCF preparation             ....       0.199 sec  (  2.7%)
Fock matrix formation       ....       6.533 sec  ( 87.1%)
  Startup                   ....       0.004 sec  (  0.1% of F)
  Split-RI-J                ....       0.554 sec  (  8.5% of F)
  Chain of spheres X        ....       5.083 sec  ( 77.8% of F)
  XC integration            ....       1.285 sec  ( 19.7% of F)
    XC Preparation          ....       0.000 sec  (  0.0% of XC)
    Basis function eval.    ....       0.395 sec  ( 30.8% of XC)
    Density eval.           ....       0.221 sec  ( 17.2% of XC)
    XC-Functional eval.     ....       0.078 sec  (  6.0% of XC)
    XC-Potential eval.      ....       0.246 sec  ( 19.1% of XC)
Diagonalization             ....       0.000 sec  (  0.0%)
Density matrix formation    ....       0.026 sec  (  0.3%)
Total Energy calculation    ....       0.014 sec  (  0.2%)
Population analysis         ....       0.016 sec  (  0.2%)
Orbital Transformation      ....       0.017 sec  (  0.2%)
Orbital Orthonormalization  ....       0.000 sec  (  0.0%)
DIIS solution               ....       0.092 sec  (  1.2%)
SOSCF solution              ....       0.047 sec  (  0.6%)
Finished LeanSCF after   7.5 sec

Maximum memory used throughout the entire LEANSCF-calculation: 11.9 MB


-------------------------------------------------------------------------------
                          DFT DISPERSION CORRECTION                            
                                                                               
                              DFTD3 V3.1  Rev 1                                
                          USING Becke-Johnson damping                          
-------------------------------------------------------------------------------
The B3LYP functional is recognized
Active option DFTDOPT                   ...         4   

molecular C6(AA) [au] = 1676.322675 


            DFT-D V3
 parameters
 s6 scaling factor         :     1.0000 
 a1 scaling factor         :     0.3981 
 s8 scaling factor         :     1.9889 
 a2 scaling factor         :     4.4211 
 ad hoc parameters k1-k3   :    16.0000     1.3333    -4.0000 

 Edisp/kcal,au: -11.080809234660  -0.017658391643 
 E6   /kcal   :  -5.527674366 
 E8   /kcal   :  -5.553134868 
 % E8         :  50.114885572 

-------------------------   ----------------
Dispersion correction           -0.017658392
-------------------------   ----------------


-------------------------   --------------------
FINAL SINGLE POINT ENERGY      -308.463425594708
-------------------------   --------------------



           ************************************************************
           *        Program running with 6 parallel MPI-processes     *
           *              working on a common directory               *
           ************************************************************
------------------------------------------------------------------------------
                         ORCA SCF GRADIENT CALCULATION
------------------------------------------------------------------------------

Nuc. rep. gradient        (SHARK) ... done (  0.0 sec)
HCore & Overlap gradient  (SHARK) ... done (  0.0 sec)
Split-RIJ-J gradient      (SHARK) ... done (  0.2 sec)
done (  3.6 sec)
XC gradient                       ... done (  0.7 sec)
Dispersion correction             ... done (  0.0 sec)

-------------------
DISPERSION GRADIENT
-------------------

   1   C   :    0.000412873    0.000342853    0.000005480
   2   C   :    0.000150336    0.000245780    0.000055378
   3   C   :   -0.000099926   -0.000266723    0.000036811
   4   C   :   -0.000058553   -0.000531572   -0.000028385
   5   O   :   -0.000134230    0.000092312   -0.000194231
   6   H   :    0.000190913    0.000160794   -0.000037524
   7   H   :    0.000283564    0.000097718   -0.000075431
   8   H   :    0.000241387    0.000138217    0.000093453
   9   H   :    0.000015521   -0.000284977    0.000078196
  10   H   :    0.000075223   -0.000285034   -0.000091893
  11   H   :   -0.000027641   -0.000244553   -0.000051288
  12   H   :   -0.000229437    0.000132670   -0.000048942
  13   H   :   -0.000006565    0.000174876    0.000118488
  14   H   :   -0.000245940    0.000087852    0.000004948
  15   O   :   -0.000431743    0.000240931    0.000022602
  16   H   :   -0.000135781   -0.000101144    0.000112336

Difference to translation invariance:
           :   -0.0000000000    0.0000000000   -0.0000000000

Difference to rotation invariance:
           :   -0.0000000000   -0.0000000000   -0.0000000000

Norm of the Dispersion gradient    ...    0.0013307976
RMS gradient                       ...    0.0001920841
MAX gradient                       ...    0.0005315717

------------------
CARTESIAN GRADIENT
------------------

   1   C   :   -0.000051989   -0.000020776    0.000195824
   2   C   :    0.000037381   -0.000094841   -0.000076739
   3   C   :    0.000057491   -0.000059894   -0.000003571
   4   C   :    0.000020243    0.000065377   -0.000016868
   5   O   :    0.000040716    0.000048483    0.000046759
   6   H   :   -0.000040456    0.000002542   -0.000009750
   7   H   :   -0.000041308    0.000085659   -0.000051179
   8   H   :   -0.000018419    0.000063676   -0.000059370
   9   H   :    0.000044221    0.000035225   -0.000005237
  10   H   :   -0.000046967   -0.000044387   -0.000044847
  11   H   :   -0.000085553   -0.000004093    0.000014170
  12   H   :   -0.000136721   -0.000281334   -0.000045508
  13   H   :    0.000056557    0.000089845    0.000069680
  14   H   :   -0.000029261    0.000160930   -0.000087864
  15   O   :    0.000226785    0.000049168    0.000040188
  16   H   :   -0.000032720   -0.000095578    0.000034313

Difference to translation invariance:
           :   -0.0000000000    0.0000000001   -0.0000000000

Difference to rotation invariance:
           :    0.0000072186    0.0001398316   -0.0000346596

Norm of the Cartesian gradient     ...    0.0005757248
RMS gradient                       ...    0.0000830987
MAX gradient                       ...    0.0002813338

-------
TIMINGS
-------

Total SCF gradient time     ....        4.619 sec

Densities                   ....       0.000 sec  (  0.0%)
One electron gradient       ....       0.039 sec  (  0.8%)
RI-J Coulomb gradient       ....       0.213 sec  (  4.6%)
COSX gradient               ....       3.586 sec  ( 77.6%)
XC gradient                 ....       0.737 sec  ( 16.0%)

Maximum memory used throughout the entire SCFGRAD-calculation: 28.4 MB


           ************************************************************
           *        Program running with 6 parallel MPI-processes     *
           *              working on a common directory               *
           ************************************************************

------------------------------------------------------------------------------
                              ORCA PROPERTY CALCULATIONS
------------------------------------------------------------------------------

GBWName                                 ... orca.gbw
Number of atoms                         ...     16
Number of basis functions               ...    134
Max core memory                         ...   4096 MB

Electric properties:
Dipole moment                           ... YES
Quadrupole moment                       ...  NO
Static polarizability (Dipole/Dipole)   ...  NO
Static polarizability (Dipole/Quad.)    ...  NO
Static polarizability (Quad./Quad.)     ...  NO
Static polarizability (Velocity)        ...  NO
Static hyperpolarizability              ...  NO

Atomic electric properties:
Dipole moment                           ...  NO
Quadrupole moment                       ...  NO
Static polarizability                   ...  NO

Choice of electric origin               ... Center of mass
Position of electric origin             ...     0.024225     0.068485     0.030193

General magnetic properties:
Magnetizability                         ...  NO

EPR properties:
g-Tensor (aka g-matrix)                 ...  NO
Zero-Field splitting spin-orbit         ...  NO
Zero-field splitting spin-spin          ...  NO
Hyperfine couplings                     ...  NO (   0 nuclei)
Quadrupole couplings                    ...  NO (   0 nuclei)
Contact density                         ...  NO (   0 nuclei)

NMR properties:
Chemical shifts                         ...  NO (   0 nuclei)
Spin-rotation constants                 ...  NO (   0 nuclei)
Spin-spin couplings                     ...  NO (   0 nuclei,    0 pairs)

Choice of magnetic origin               ... GIAO
Position of magnetic origin             ...     0.000000     0.000000     0.000000

Properties with geometric perturbations:
SCF Hessian                             ...  NO
IR spectrum                             ...  NO
VCD spectrum                            ...  NO
X-ray spectroscopy properties:
SCF XES/XAS/RIXS spectra                ...  NO

SCF SOC stabilization energy            ...  NO
Diagonal Born-Oppenheimer correction    ...  NO

-------------
DIPOLE MOMENT
-------------

Method             : SCF
Type of density    : Electron Density
Multiplicity       :   1
Irrep              :   0
Energy             :  -308.4457672030652020 Eh
Basis              : AO
                                X                 Y                 Z
Electronic contribution:     -2.978537784       1.872505213      -1.000913211
Nuclear contribution   :      3.371472115      -2.662402588       1.133950353
                        -----------------------------------------
Total Dipole Moment    :      0.392934330      -0.789897375       0.133037142
                        -----------------------------------------
Magnitude (a.u.)       :      0.892207449
Magnitude (Debye)      :      2.267811109



--------------------
Rotational spectrum 
--------------------
 
Rotational constants in cm-1:             0.140731             0.072243             0.053573 
Rotational constants in MHz :          4219.021858          2165.792591          1606.079106 

Dipole components along the rotational axes: 
x,y,z [a.u.] :    -0.717660    -0.493768     0.192852 
x,y,z [Debye]:    -1.824147    -1.255058     0.490190 

 

Dipole moment calculation done in   0.0 sec 

Maximum memory used throughout the entire PROP-calculation: 6.6 MB

--------------------------------
SUGGESTED CITATIONS FOR THIS RUN
--------------------------------

Below you find a list of papers that are relevant to this ORCA run
We neither can nor want to force you to cite these papers, but we appreciate if you do
You receive ORCA, which is the product of decades of hard work by many enthusiastic individuals, for free
The only thing we kindly ask in return is that you cite our papers,
We deeply appreciate it, if you show your appreciation for ORCA by not just citing the generic ORCA reference.

Please note that relegating all ORCA citations to the supporting information does *not* help us.
SI sections are not indexed - citations you put there will not count into any citation statistics
But we need these citations in order to attract the funding resources that allow us to do what we are doing

Therefore, if you are a happy ORCA user, please consider citing a few of the papers listed below in the main body of your paper

In addition to the list printed below, the program has created the file orca.bibtex that contains the list in bibtex format
You can import this file easily into all common literature databanks and citation aid programs


List of essential papers. We consider these as the minimum necessary citations

  1. Neese, F.
     Software update: the ORCA program system, version 6.0
     WIRES Comput. Molec. Sci. 2025 15(1), e70019
     doi.org/10.1002/wcms.7019

List of papers to cite with high priority. The work reported in these papers was absolutely
necessary for this run to complete.
Our perspective: the developers of density functionals and basis sets usually get cited in chemistry papers
Good! But without the algorithms to do something with them, the functionals or basis sets would not do anything.
Hence, in our opinion, the algorithm design and method developments papers are equally worthy of getting cited

  1. Neese, F.
     An improvement of the resolution of the identity approximation for the formation of the Coulomb matrix
     J. Comp. Chem. 2003 24(14), 1740-1747
     doi.org/10.1002/jcc.10318
  2. Neese, F.; Wennmohs, F.; Hansen, A.; Becker, U.
     Efficient, approximate and parallel Hartree-Fock and hybrid DFT calculations. A 'chain-of-spheres' algorithm for the Hartree-Fock exchange
     Chem. Phys. 2009 356(1-3), 98-109
     doi.org/10.1016/j.chemphys.2008.10.036
  3. Grimme, S.; Antony, J.; Ehrlich, S.; Krieg, H.
     A consistent and accurate ab initio parametrization of density functional dispersion correction (DFT-D) for the 94 elements H-Pu
     J. Chem. Phys. 2010 132 , 154104
     doi.org/10.1063/1.3382344
  4. Grimme, S.; Ehrlich, S.; Goerigk, L.
     Effect of the damping function in dispersion corrected density functional theory
     J. Comput. Chem. 2011 32(7), 1456-1465
     doi.org/10.1002/jcc.21759
  5. Helmich-Paris, B.; de Souza, B.; Neese, F.; Izsák, R.
     An improved chain of spheres for exchange algorithm
     J. Chem. Phys. 2021 155(10), 104109
     doi.org/10.1063/5.0058766
  6. Neese, F.
     The SHARK Integral Generation and Digestion System
     J. Comp. Chem. 2022 44(3), 381
     doi.org/10.1002/jcc.26942

List of suggested additional citations. These are papers that are important in the 'surrounding' of 
of this run, or papers that preceded the highly important papers. If you like your results we are grateful for a citation.

  1. Izsak, R.; Neese, F.
     An overlap fitted chain of spheres exchange method
     J. Chem. Phys. 2011 135 , 144105
     doi.org/10.1063/1.3646921
  2. Izsak, R.; Hansen, A.; Neese, F.
     The resolution of identity and chain of spheres approximations for the LPNO-CCSD singles Fock term
     Molec. Phys. 2012 110 , 2413-2417
     doi.org/10.1080/00268976.2012.687466
  3. Neese, F.
     The ORCA program system
     WIRES Comput. Molec. Sci. 2012 2(1), 73-78
     doi.org/10.1002/wcms.81
  4. Izsak, R.; Neese, F.; Klopper, W.
     Robust fitting techniques in the chain of spheres approximation to the Fock exchange: The role of the complementary space
     J. Chem. Phys. 2013 139 , 
     doi.org/10.1063/1.4819264
  5. Neese, F.
     Software update: the ORCA program system, version 4.0
     WIRES Comput. Molec. Sci. 2018 8(1), 1-6
     doi.org/10.1002/wcms.1327
  6. Neese, F.; Wennmohs, F.; Becker, U.; Riplinger, C.
     The ORCA quantum chemistry program package
     J. Chem. Phys. 2020 152(22), 224108
     doi.org/10.1063/5.0004608
  7. Neese, F.
     Software update: The ORCA program system—Version 5.0
     WIRES Comput. Molec. Sci. 2022 12(1), e1606
     doi.org/10.1002/wcms.1606

List of optional additional citations

  1. Neese, F.
     Approximate second-order SCF convergence for spin unrestricted wavefunctions
     Chem. Phys. Lett. 2000 325(1-3), 93-98
     doi.org/10.1016/s0009-2614(00)00662-x

Timings for individual modules:

Sum of individual times          ...       15.415 sec (=   0.257 min)
Startup calculation              ...        1.417 sec (=   0.024 min)   9.2 %
SCF iterations                   ...        8.482 sec (=   0.141 min)  55.0 %
Property calculations            ...        0.436 sec (=   0.007 min)   2.8 %
SCF Gradient evaluation          ...        5.080 sec (=   0.085 min)  33.0 %
                             ****ORCA TERMINATED NORMALLY****
TOTAL RUN TIME: 0 days 0 hours 0 minutes 15 seconds 978 msec
