
                                 *****************
                                 * O   R   C   A *
                                 *****************

                                            #,                                       
                                            ###                                      
                                            ####                                     
                                            #####                                    
                                            ######                                   
                                           ########,                                 
                                     ,,################,,,,,                         
                               ,,#################################,,                 
                          ,,##########################################,,             
                       ,#########################################, ''#####,          
                    ,#############################################,,   '####,        
                  ,##################################################,,,,####,       
                ,###########''''           ''''###############################       
              ,#####''   ,,,,##########,,,,          '''####'''          '####       
            ,##' ,,,,###########################,,,                        '##       
           ' ,,###''''                  '''############,,,                           
         ,,##''                                '''############,,,,        ,,,,,,###''
      ,#''                                            '''#######################'''  
     '                                                          ''''####''''         
             ,#######,   #######,   ,#######,      ##                                
            ,#'     '#,  ##    ##  ,#'     '#,    #''#        ,####,    ,#,          
            ##       ##  ##   ,#'  ##            #'  '#       #'       ,# #          
            ##       ##  #######   ##           ,######,      #####,      #          
            '#,     ,#'  ##    ##  '#,     ,#' ,#      #,     #,   #      #          
             '#######'   ##     ##  '#######'  #'      '#     '####' #    #          



                #########################################################
                #                        -***-                          #
                #          Department of theory and spectroscopy        #
                #                                                       #
                #                      Frank Neese                      #
                #                                                       #
                #     Directorship, Architecture, Infrastructure        #
                #                    SHARK, DRIVERS                     #
                #        Core code/Algorithms in most modules           #
                #                                                       #
                #        Max Planck Institute fuer Kohlenforschung      #
                #                Kaiser Wilhelm Platz 1                 #
                #                 D-45470 Muelheim/Ruhr                 #
                #                      Germany                          #
                #                                                       #
                #                  All rights reserved                  #
                #                        -***-                          #
                #########################################################


                         Program Version 6.1.0  -  RELEASE   -
                                (GIT: $679e74b$)
                          ($2025-06-10 18:02:51 +0200$)


 With contributions from (in alphabetic order):
[Max-Planck-Institut fuer Kohlenforschung]                               
  Daniel Aravena         : Magnetic Suceptibility                        
  Michael Atanasov       : Ab Initio Ligand Field Theory (pilot matlab implementation)
  Alexander A. Auer      : GIAO ZORA, VPT2 properties, NMR spectrum      
  Ute Becker             : All parallelization in ORCA, NUMFREQ, NUMCALC 
  Giovanni Bistoni       : ED, misc. LED, open-shell LED, HFLD           
  Dmytro Bykov           : pre 5.0 version of the SCF Hessian            
  Marcos Casanova-Páez   : Triplet and SCS-CIS(D). UHF-(DLPNO)-IP/EA/STEOM-CCSD. UHF-CVS-IP/STEOM-CCSD   
  Vijay G. Chilkuri      : MRCI spin determinant printing, contributions to CSF-ICE 
  Pauline Colinet        : FMM embedding                                 
  Dipayan Datta          : RHF DLPNO-CCSD density                        
  Achintya Kumar Dutta   : EOM-CC, STEOM-CC                              
  Nicolas Foglia         : Exact transition moments, OPA infrastructure, MCD improvements    
  Dmitry Ganyushin       : Spin-Orbit,Spin-Spin,Magnetic field MRCI      
  Miquel Garcia-Rates    : C-PCM and meta-GGA Hessian, CCSD/C-PCM, Gaussian charge scheme 
  Tiago L. C. Gouveia    : GS-ROHF, GS-ROCIS                             
  Yang Guo               : DLPNO-NEVPT2, F12-NEVPT2, CIM, IAO-localization        
  Andreas Hansen         : Spin unrestricted coupled pair/coupled cluster methods 
  Ingolf Harden          : AUTO-CI MPn and infrastructure                
  Benjamin Helmich-Paris : MC-RPA, TRAH-(SCF,CASSCF), AVAS, COSX integrals, SCF dyn. polar., MC-PDFT, srDFT 
  Lee Huntington         : MR-EOM, pCC                                   
  Robert Izsak           : Overlap fitted RIJCOSX, COSX-SCS-MP3, EOM     
  Riya Kayal             : Wick's Theorem for AUTO-CI, AUTO-CI UHF-CCSDT 
  Emily Kempfer          : AUTO-CI RHF CISDT and CCSDT, approximate NEVPT4
  Christian Kollmar      : KDIIS, OOCD, Brueckner-CCSD(T), CCSD density, CASPT2, CASPT2-K, improved NEVPT2 
  Axel Koslowski         : Symmetry handling                             
  Simone Kossmann        : meta-GGA functionals, TD-DFT gradient, OOMP2, (MP2 Hessian; deprecated post 5.0) 
  Lucas Lang             : DCDCAS, Hyperfine gauge corrections, ICE-SOC+SSC
  Marvin Lechner         : AUTO-CI (C++ implementation), FIC-MRCC        
  Spencer Leger          : CASSCF response                               
  Dagmar Lenk            : GEPOL surface, SMD, ORCA-2-JSON               
  Dimitrios Liakos       : Extrapolation schemes; Compound Job, Property file
  Dimitrios Manganas     : Further ROCIS development; embedding schemes. LFT, Crystal Embedding 
  Dimitrios Pantazis     : SARC Basis sets                               
  Anastasios Papadopoulos: AUTO-CI, single reference methods and gradients 
  Taras Petrenko         : pre 6.0 DFT Hessian and TD-DFT gradient,  ECA, NRVS 
  Petra Pikulova         : Analytic Raman intensities                    
  Peter Pinski           : DLPNO-MP2, DLPNO-MP2 Gradient                 
  Shashank Vittal Rao    : ES-AILFT, MagRelax                            
  Christoph Reimann      : Effective Core Potentials                     
  Marius Retegan         : Local ZFS, SOC                                
  Christoph Riplinger    : Optimizer, TS searches, QM/MM, DLPNO-CCSD(T), (RO)-DLPNO pert. Triples 
  Michael Roemelt        : Original ROCIS implementation, recursive CI coupling coefficients
  Masaaki Saitow         : Open-shell DLPNO-CCSD energy and density      
  Barbara Sandhoefer     : DKH picture change effects                    
  Yorick L. A. Schmerwitz: GMF and freeze-and-release deltaSCF, NEB S-IDPP initial path                    
  Kantharuban Sivalingam : CASSCF convergence/infrastructure, NEVPT2, NEVPT3, NEVPT4(SD), FIC-MRCI and CEPA variants
  Bernardo de Souza      : ESD, SOC TD-DFT                               
  Georgi L. Stoychev     : AutoAux, RI-MP2 NMR, DLPNO-MP2 response, X2C  
  Van Anh Tran           : RI-MP2 g-tensors                              
  Willem Van den Heuvel  : Paramagnetic NMR                              
  Zikuan Wang            : NOTCH, Electric field optimization            
  Frank Wennmohs         : Technical directorship and infrastructure     
  Hang Xu                : AUTO-CI-Response properties                   
                                                                         
[FACCTs GmbH]                                                            
  Markus Bursch, Nicolas Foglia, Miquel Garcia-Rates, Ingolf Harden, Hagen Neugebauer, Anastasios Papadopoulos, 
  Christoph Riplinger, Bernardo de Souza, Georgi L. Stoychev                                                    
                                                                 
  APM, various basis sets, CI-OPT, improved COSX, DLPNO-Multilevel,           
  DOCKER, DRACO, updates on ESD, Fragmentator, GOAT, IRC, LR-CPCM, L-BFGS, MBIS, meta-GGA TD-DFT gradient, ML-optimized integration grids, 
  MM, NACMEs, nearIR, NEB, NEB-TS, NL-DFT gradient (VV10), 2- and 3-layer-ONIOM, interface openCOSMO-RS, QMMM,   
  Crystal-QMMM, RESP, rigid body optimization, SF, symmetry and pop. for TD-DFT, various functionals, SOLVATOR                                   
                                                                         
[Other institutions]                                                     
  V. Asgeirsson          : NEB                                           
  Christoph Bannwarth    : sTDA-DFT, sTD-DFT, PBEh-3c, B97-3c, D3        
  Giovanni Bistoni       : ETS/NOCV, ADLD/ADEX, COVALED                  
  Martin Brehm           : Molecular dynamics                            
  Ronald Cardenas        : ETS/NOCV                                      
  Martina Colucci        : COVALED                                       
  Sebastian Ehlert       : rSCAN, r2SCAN, r2SCAN-3c, D4, dhf basis sets  
  Marvin Friede          : D4 for Fr, Ra, Ac-Lr                          
  Lars Goerigk           : TD-DFT with DH, B97 family of functionals     
  Stefan Grimme          : VdW corrections, initial TS optimization, DFT functionals, gCP, sTDA/sTD-DF 
  Waldemar Hujo          : DFT-NL                                        
  H. Jonsson             : NEB                                           
  Holger Kruse           : gCP                                           
  Marcel Mueller         : wB97X-3c, vDZP basis set                      
  Hagen Neugebauer       : wr2SCAN, Native XTB                           
  Gianluca Regni         : ADLD/ADEX                                     
  Tobias Risthaus        : pre 6.0 range-separated hybrid DFT and stability analysis
  Lukas Wittmann         : regularized MP2, r2SCAN double-hybrids, wr2SCAN        
                                                                         
We gratefully acknowledge several colleagues who have allowed us to      
interface, adapt or use parts of their codes:                            
  Ed Valeev, F. Pavosevic, A. Kumar             : LibInt (2-el integral package), F12 methods 
  Garnet Chan, S. Sharma, J. Yang, R. Olivares  : DMRG                   
  Ulf Ekstrom                                   : XCFun DFT Library      
  Mihaly Kallay                                 : mrcc  (arbitrary order and MRCC methods)
  Frank Weinhold                                : gennbo (NPA and NBO analysis)           
  Simon Mueller                                 : openCOSMO-RS                            
  Christopher J. Cramer and Donald G. Truhlar   : smd solvation model                     
  S Lehtola, MJT Oliveira, MAL Marques          : LibXC Library                           
  Liviu Ungur et al                             : ANISO software                          


 Your calculation uses the libint2 library for the computation of 2-el integrals
 For citations please refer to: http://libint.valeyev.net

 Your ORCA version has been built with support for libXC version: 7.0.0
 For citations please refer to: https://libxc.gitlab.io

 This ORCA versions uses:
   CBLAS   interface :  Fast vector & matrix operations
   LAPACKE interface :  Fast linear algebra routines
   SCALAPACK package :  Parallel linear algebra routines
   Shared memory     :  Shared parallel matrices
   BLAS/LAPACK       :  OpenBLAS 0.3.29  USE64BITINT DYNAMIC_ARCH NO_AFFINITY Zen SINGLE_THREADED
        Core in use  :  Zen
   Copyright (c) 2011-2014, The OpenBLAS Project


  ***********************************
  * Starting time: Wed Sep 10 13:33:15 2025
  * Host name:     wyk-Server
  * Process ID:    2271002
  * Working dir.:  /home/wyk/Documents/code/openQDC/MGMR/singlepointcalc/3/sp
  ***********************************

Your calculation utilizes the atom-pairwise dispersion correction
with the Becke-Johnson damping scheme (D3BJ)


Warning: RI is on but no J-basis has been assigned. Assigning Def2/J (nothing to worry about!)
================================================================================

----- Orbital basis set information -----
Your calculation utilizes the basis: def2-SVP
   F. Weigend and R. Ahlrichs, Phys. Chem. Chem. Phys. 7, 3297 (2005).

----- AuxJ basis set information -----
Your calculation utilizes the auxiliary basis: def2/J
   H-Rn: F. Weigend, Phys. Chem. Chem. Phys. 8, 1057 (2006).
   Fr-Lr: K. Eichkorn, F. Weigend, O. Treutler, R. Ahlrichs; Theor. Chem. Acc. 97, 119 (1997).

================================================================================
                                        WARNINGS
                       Please study these warnings very carefully!
================================================================================


================================================================================
                                       INPUT FILE
================================================================================
NAME = orca.inp
|  1> ! B3LYP def2-SVP d3 EnGrad 
|  2> %pal nprocs 6 end 
|  3> *xyz 0 1 
|  4> N   0.74278193832712 1.02762849191002 0.99832331580459
|  5> B   0.91420755980865 0.31874724017029 -0.39559251505029
|  6> N   -0.26873977861076 -0.84925589910179 -0.05027166429248
|  7> B   -1.57465607312167 -0.80317407708862 -0.6244053324521
|  8> H   -0.09887935515705 -0.08056638644546 0.89108718712275
|  9> H   1.96946442824631 -0.27458744463188 -0.50503025958946
| 10> H   0.56649000538109 0.99192056054264 -1.34160142325329
| 11> H   0.32485617355323 1.9560816585818 0.98672664743947
| 12> H   1.55030942707683 1.03159847836968 1.61833332919076
| 13> H   0.12106634437243 -1.77560340924519 0.11949828483202
| 14> H   -2.1675356986772 -1.82059101548458 -0.89418552494526
| 15> H   -2.07936497119898 0.27780180242308 -0.80288204480671
| 16> *
| 17> 
| 18>                          ****END OF INPUT****
================================================================================

                     *******************************
                     * Energy+Gradient Calculation *
                     *******************************

---------------------------------
CARTESIAN COORDINATES (ANGSTROEM)
---------------------------------
  N      0.742782    1.027628    0.998323
  B      0.914208    0.318747   -0.395593
  N     -0.268740   -0.849256   -0.050272
  B     -1.574656   -0.803174   -0.624405
  H     -0.098879   -0.080566    0.891087
  H      1.969464   -0.274587   -0.505030
  H      0.566490    0.991921   -1.341601
  H      0.324856    1.956082    0.986727
  H      1.550309    1.031598    1.618333
  H      0.121066   -1.775603    0.119498
  H     -2.167536   -1.820591   -0.894186
  H     -2.079365    0.277802   -0.802882

----------------------------
CARTESIAN COORDINATES (A.U.)
----------------------------
  NO LB      ZA    FRAG     MASS         X           Y           Z
   0 N     7.0000    0    14.007    1.403654    1.941936    1.886558
   1 B     5.0000    0    10.810    1.727602    0.602345   -0.747562
   2 N     7.0000    0    14.007   -0.507845   -1.604861   -0.095000
   3 B     5.0000    0    10.810   -2.975669   -1.517779   -1.179955
   4 H     1.0000    0     1.008   -0.186855   -0.152248    1.683911
   5 H     1.0000    0     1.008    3.721748   -0.518895   -0.954369
   6 H     1.0000    0     1.008    1.070511    1.874458   -2.535259
   7 H     1.0000    0     1.008    0.613889    3.696459    1.864643
   8 H     1.0000    0     1.008    2.929660    1.949439    3.058207
   9 H     1.0000    0     1.008    0.228782   -3.355404    0.225819
  10 H     1.0000    0     1.008   -4.096049   -3.440418   -1.689766
  11 H     1.0000    0     1.008   -3.929430    0.524969   -1.517227

--------------------------------
INTERNAL COORDINATES (ANGSTROEM)
--------------------------------
 N      0   0   0     0.000000000000     0.00000000     0.00000000
 B      1   0   0     1.573181717500     0.00000000     0.00000000
 N      2   1   0     1.697893468034    93.08690050     0.00000000
 B      3   2   1     1.427294773865   122.23847456   104.63791492
 H      3   2   1     1.227148164429    68.20215764   358.60476131
 H      2   1   3     1.215561486106   113.22328142   250.34874796
 H      2   1   3     1.212024204097   114.20773663   113.49057486
 H      1   2   3     1.018244425608   116.45542661   249.05184844
 H      1   2   3     1.018100595510   117.05975516   117.23416532
 H      3   2   1     1.019259711109   113.11819119   252.08613202
 H      4   3   2     1.208066566542   120.77516593   146.06015296
 H      4   3   2     1.206272714081   118.11682946   324.38056399

---------------------------
INTERNAL COORDINATES (A.U.)
---------------------------
 N      0   0   0     0.000000000000     0.00000000     0.00000000
 B      1   0   0     2.972882604967     0.00000000     0.00000000
 N      2   1   0     3.208553659157    93.08690050     0.00000000
 B      3   2   1     2.697196234983   122.23847456   104.63791492
 H      3   2   1     2.318973956515    68.20215764   358.60476131
 H      2   1   3     2.297078307682   113.22328142   250.34874796
 H      2   1   3     2.290393813428   114.20773663   113.49057486
 H      1   2   3     1.924203101791   116.45542661   249.05184844
 H      1   2   3     1.923931302296   117.05975516   117.23416532
 H      3   2   1     1.926121713336   113.11819119   252.08613202
 H      4   3   2     2.282914962310   120.77516593   146.06015296
 H      4   3   2     2.279525072436   118.11682946   324.38056399

---------------------
BASIS SET INFORMATION
---------------------
There are 3 groups of distinct atoms

 Group   1 Type N   : 7s4p1d contracted to 3s2p1d pattern {511/31/1}
 Group   2 Type B   : 7s4p1d contracted to 3s2p1d pattern {511/31/1}
 Group   3 Type H   : 4s1p contracted to 2s1p pattern {31/1}

Atom   0N    basis set group =>   1
Atom   1B    basis set group =>   2
Atom   2N    basis set group =>   1
Atom   3B    basis set group =>   2
Atom   4H    basis set group =>   3
Atom   5H    basis set group =>   3
Atom   6H    basis set group =>   3
Atom   7H    basis set group =>   3
Atom   8H    basis set group =>   3
Atom   9H    basis set group =>   3
Atom  10H    basis set group =>   3
Atom  11H    basis set group =>   3
---------------------------------
AUXILIARY/J BASIS SET INFORMATION
---------------------------------
There are 3 groups of distinct atoms

 Group   1 Type N   : 12s5p4d2f1g contracted to 6s4p3d1f1g pattern {711111/2111/211/2/1}
 Group   2 Type B   : 12s5p4d2f1g contracted to 6s4p3d1f1g pattern {711111/2111/211/2/1}
 Group   3 Type H   : 5s2p1d contracted to 3s1p1d pattern {311/2/1}

Atom   0N    basis set group =>   1
Atom   1B    basis set group =>   2
Atom   2N    basis set group =>   1
Atom   3B    basis set group =>   2
Atom   4H    basis set group =>   3
Atom   5H    basis set group =>   3
Atom   6H    basis set group =>   3
Atom   7H    basis set group =>   3
Atom   8H    basis set group =>   3
Atom   9H    basis set group =>   3
Atom  10H    basis set group =>   3
Atom  11H    basis set group =>   3


           ************************************************************
           *        Program running with 6 parallel MPI-processes     *
           *              working on a common directory               *
           ************************************************************
------------------------------------------------------------------------------
                             ORCA STARTUP CALCULATIONS
                           -- RI-GTO INTEGRALS CHOSEN --
------------------------------------------------------------------------------
------------------------------------------------------------------------------
                   ___                                                        
                  /   \      - P O W E R E D   B Y -                         
                 /     \                                                     
                 |  |  |   _    _      __       _____    __    __             
                 |  |  |  | |  | |    /  \     |  _  \  |  |  /  |          
                  \  \/   | |  | |   /    \    | | | |  |  | /  /          
                 / \  \   | |__| |  /  /\  \   | |_| |  |  |/  /          
                |  |  |   |  __  | /  /__\  \  |    /   |      \           
                |  |  |   | |  | | |   __   |  |    \   |  |\   \          
                \     /   | |  | | |  |  |  |  | |\  \  |  | \   \       
                 \___/    |_|  |_| |__|  |__|  |_| \__\ |__|  \__/        
                                                                              
                      - O R C A' S   B I G   F R I E N D -                    
                                      &                                       
                       - I N T E G R A L  F E E D E R -                       
                                                                              
 v1 FN, 2020, v2 2021, v3 2022-2024                                           
------------------------------------------------------------------------------


----------------------
SHARK INTEGRAL PACKAGE
----------------------

Number of atoms                             ...     12
Number of basis functions                   ...     96
Number of shells                            ...     48
Maximum angular momentum                    ...      2
Integral batch strategy                     ... SHARK/LIBINT Hybrid
RI-J (if used) integral strategy            ... SPLIT-RIJ (Revised 2003 algorithm where possible)
Printlevel                                  ...      1
Contraction scheme used                     ... SEGMENTED contraction
Prescreening option                         ... SCHWARTZ
   Thresh                                   ... 2.500e-11
   Tcut                                     ... 2.500e-12
   Tpresel                                  ... 2.500e-12 
Coulomb Range Separation                    ... NOT USED
Exchange Range Separation                   ... NOT USED
Multipole approximations                    ... NOT USED
Finite Nucleus Model                        ... NOT USED
CABS basis                                  ... NOT available
Auxiliary Coulomb fitting basis             ... AVAILABLE
   # of basis functions in Aux-J            ...    284
   # of shells in Aux-J                     ...    100
   Maximum angular momentum in Aux-J        ...      4
Auxiliary J/K fitting basis                 ... NOT available
Auxiliary Correlation fitting basis         ... NOT available
Auxiliary 'external' fitting basis          ... NOT available

Checking pre-screening integrals            ... done (  0.0 sec) Dimension = 48
   => SHARK Basis and OBASIS are compatible. Storing Pre-screening
Shell pair information
Shell pair cut-off parameter TPreSel        ...   2.5e-12
Total number of shell pairs                 ...      1176
Shell pairs after pre-screening             ...      1162
Total number of primitive shell pairs       ...      3992
Primitive shell pairs kept                  ...      3250
          la=0 lb=0:    402 shell pairs
          la=1 lb=0:    441 shell pairs
          la=1 lb=1:    134 shell pairs
          la=2 lb=0:    112 shell pairs
          la=2 lb=1:     63 shell pairs
          la=2 lb=2:     10 shell pairs

Checking whether 4 symmetric matrices of dimension 96 fit in memory
:Max Core in MB      =   4096.00
 MB in use           =      4.76
 MB left             =   4091.24
 MB needed           =      0.14
 Data fit in memory  = YES
Calculating RI/J V-Matrix + Cholesky decomp.... done (  0.0 sec)
Calculating Nuclear repulsion               ... done (  0.0 sec) ENN=    114.668234976423 Eh

Diagonalization of the overlap matrix:
Smallest eigenvalue                        ... 5.257e-03
Time for diagonalization                   ...    0.001 sec
Threshold for overlap eigenvalues          ... 1.000e-07
Number of eigenvalues below threshold      ... 0
Time for construction of square roots      ...    0.000 sec
Total time needed                          ...    0.002 sec

-------------------
DFT GRID GENERATION
-------------------

General Integration Accuracy     IntAcc      ... 4.388
Radial Grid Type                 RadialGrid  ... OptM3 with GC (2021)
Angular Grid (max. ang.)         AngularGrid ... 4 (Lebedev-302)
Angular grid pruning method      GridPruning ... 4 (adaptive)
Weight generation scheme         WeightScheme... mBecke (2022)
Basis function cutoff            BFCut       ... 1.0000e-11
Integration weight cutoff        WCut        ... 1.0000e-14
Partially contracted basis set               ... off
Rotationally invariant grid construction     ... off
Angular grids for H and He will be reduced by one unit

Total number of grid points                  ...    50037
Total number of batches                      ...      788
Average number of points per batch           ...       63
Average number of grid points per atom       ...     4170

--------------------
COSX GRID GENERATION
--------------------

GRIDX 1
-------
General Integration Accuracy     IntAcc      ... 3.816
Radial Grid Type                 RadialGrid  ... OptM3 with GC (2021)
Angular Grid (max. ang.)         AngularGrid ... 1 (Lebedev-50)
Angular grid pruning method      GridPruning ... 4 (adaptive)
Weight generation scheme         WeightScheme... mBecke (2022)
Basis function cutoff            BFCut       ... 1.0000e-11
Integration weight cutoff        WCut        ... 1.0000e-14
Partially contracted basis set               ... on
Rotationally invariant grid construction     ... off
Angular grids for H and He will be reduced by one unit

Total number of grid points                  ...     6462
Total number of batches                      ...       58
Average number of points per batch           ...      111
Average number of grid points per atom       ...      538
UseSFitting                                  ... on

GRIDX 2
-------
General Integration Accuracy     IntAcc      ... 4.020
Radial Grid Type                 RadialGrid  ... OptM3 with GC (2021)
Angular Grid (max. ang.)         AngularGrid ... 2 (Lebedev-110)
Angular grid pruning method      GridPruning ... 4 (adaptive)
Weight generation scheme         WeightScheme... mBecke (2022)
Basis function cutoff            BFCut       ... 1.0000e-11
Integration weight cutoff        WCut        ... 1.0000e-14
Partially contracted basis set               ... on
Rotationally invariant grid construction     ... off
Angular grids for H and He will be reduced by one unit

Total number of grid points                  ...    13469
Total number of batches                      ...      112
Average number of points per batch           ...      120
Average number of grid points per atom       ...     1122
UseSFitting                                  ... on

GRIDX 3
-------
General Integration Accuracy     IntAcc      ... 4.338
Radial Grid Type                 RadialGrid  ... OptM3 with GC (2021)
Angular Grid (max. ang.)         AngularGrid ... 3 (Lebedev-194)
Angular grid pruning method      GridPruning ... 4 (adaptive)
Weight generation scheme         WeightScheme... mBecke (2022)
Basis function cutoff            BFCut       ... 1.0000e-11
Integration weight cutoff        WCut        ... 1.0000e-14
Partially contracted basis set               ... on
Rotationally invariant grid construction     ... off
Angular grids for H and He will be reduced by one unit

Total number of grid points                  ...    29500
Total number of batches                      ...      237
Average number of points per batch           ...      124
Average number of grid points per atom       ...     2458
UseSFitting                                  ... on
Grids setup in   0.6 sec
Initializing property integral containers    ... done (  0.0 sec)

SHARK setup successfully completed in   0.7 seconds

Maximum memory used throughout the entire STARTUP-calculation: 14.0 MB


           ************************************************************
           *        Program running with 6 parallel MPI-processes     *
           *              working on a common directory               *
           ************************************************************
-------------------------------------------------------------------------------
                                 ORCA GUESS
                   Start orbitals & Density for SCF / CASSCF
-------------------------------------------------------------------------------

------------
SCF SETTINGS
------------
Hamiltonian:
 Density Functional     Method          .... DFT(GTOs)
 Exchange Functional    Exchange        .... B88
   X-Alpha parameter    XAlpha          ....  0.666667
   Becke's b parameter  XBeta           ....  0.004200
 Correlation Functional Correlation     .... LYP
 LDA part of GGA corr.  LDAOpt          .... VWN-5
 Gradients option       PostSCFGGA      .... off
 Hybrid DFT is turned on
   Fraction HF Exchange ScalHFX         ....  0.200000
   Scaling of DF-GGA-X  ScalDFX         ....  0.720000
   Scaling of DF-GGA-C  ScalDFC         ....  0.810000
   Scaling of DF-LDA-C  ScalLDAC        ....  1.000000
   Perturbative correction              ....  0.000000
   NL short-range parameter             ....  4.800000
 RI-approximation to the Coulomb term is turned on
   Number of AuxJ basis functions       .... 284
   RIJ-COSX (HFX calculated with COS-X)).... on


General Settings:
 Integral files         IntName         .... orca
 Hartree-Fock type      HFTyp           .... RHF
 Total Charge           Charge          ....    0
 Multiplicity           Mult            ....    1
 Number of Electrons    NEL             ....   32
 Basis Dimension        Dim             ....   96
 Nuclear Repulsion      ENuc            ....    114.6682349764 Eh

Convergence Acceleration:
 AO-DIIS                CNVDIIS         .... on
   Start iteration      DIISMaxIt       ....    12
   Startup error        DIISStart       ....  0.200000
   # of expansion vecs  DIISMaxEq       ....     5
   Bias factor          DIISBfac        ....   1.050
   Max. coefficient     DIISMaxC        ....  10.000
 MO-DIIS                CNVKDIIS        .... off
 Trust-Rad. Augm. Hess. CNVTRAH         .... auto
   Auto Start mean grad. ratio tolernc. ....  1.125000
   Auto Start start iteration           ....    50
   Auto Start num. interpolation iter.  ....    10
   Max. Number of Micro iterations      ....    24
   Max. Number of Macro iterations      .... Maxiter - #DIIS iter
   Number of Davidson start vectors     ....     2
   Converg. threshold    (grad. norm)   ....   1.000e-05
   Grad. Scal. Fac. for Micro threshold ....   0.100
   Minimum threshold for Micro iter.    ....   1.000e-02
   NR start threshold (gradient norm)   ....   1.000e-04
   Initial trust radius                 ....   0.400
   Minimum AH scaling param. (alpha)    ....   1.000
   Maximum AH scaling param. (alpha)    .... 1000.000
   Quad. conv. algorithm                .... NR
   White noise on init. David. guess    .... on
   Maximum white noise                  ....   0.010
   Pseudo random numbers                .... off
   Inactive MOs                         .... canonical
   Orbital update algorithm             .... Taylor
   Preconditioner                       .... Diag
   Full preconditioner red. dimension   ....   250
 SOSCF                 CNVSOSCF           .... on
   Start iteration     SOSCFMaxIt         ....   150
   Startup grad/error  SOSCFStart         ....  0.003300
   Hessian update      SOSCFHessUp        .... L-BFGS
   Autom. constraints  SOSCFAutoConstrain .... off
 Level Shifting         CNVShift        .... on
   Level shift para.    LevelShift      ....    0.2500
   Turn off err/grad.   ShiftErr        ....    0.0010
 Zerner damping         CNVZerner       .... off
 Static damping         CNVDamp         .... on
   Fraction old density DampFac         ....    0.7000
   Max. Damping (<1)    DampMax         ....    0.9800
   Min. Damping (>=0)   DampMin         ....    0.0000
   Turn off err/grad.   DampErr         ....    0.1000

SCF Procedure:
 Maximum # iterations   MaxIter         ....   125
 SCF integral mode      SCFMode         .... Direct
   Integral package                     .... SHARK and LIBINT hybrid scheme
 Reset frequency        DirectResetFreq ....    20
 Integral Threshold     Thresh          ....  2.500e-11 Eh
 Primitive CutOff       TCut            ....  2.500e-12 Eh

Convergence Tolerance:
 Convergence Check Mode ConvCheckMode   .... Total+1el-Energy
 Convergence forced     ConvForced      .... 0
 Energy Change          TolE            ....  1.000e-08 Eh
 1-El. energy change                    ....  1.000e-05 Eh
 Orbital Gradient       TolG            ....  1.000e-05
 Orbital Rotation angle TolX            ....  1.000e-05
 DIIS Error             TolErr          ....  5.000e-07

------------------------------
INITIAL GUESS: MODEL POTENTIAL
------------------------------
Loading Hartree-Fock densities                     ... done
Calculating cut-offs                               ... done
Initializing the effective Hamiltonian             ... done
Setting up the integral package (SHARK)            ... done
Starting the Coulomb interaction                   ... done (   0.0 sec)
Making the grid                                    ... done (   0.1 sec)
Mapping shells                                     ... done
Starting the XC term evaluation                    ... done (   0.0 sec)
  promolecular density results
     # of electrons  =     31.994355511
     EX              =    -23.136328427
     EC              =     -1.001325980
     EX+EC           =    -24.137654407
Transforming the Hamiltonian                       ... done (   0.0 sec)
Diagonalizing the Hamiltonian                      ... done (   0.0 sec)
Back transforming the eigenvectors                 ... done (   0.0 sec)
Now organizing SCF variables                       ... done
                      ------------------
                      INITIAL GUESS DONE (   0.1 sec)
                      ------------------
             **** ENERGY FILE WAS UPDATED (orca.en.tmp) ****
Finished Guess after   0.2 sec
Maximum memory used throughout the entire GUESS-calculation: 7.1 MB


           ************************************************************
           *        Program running with 6 parallel MPI-processes     *
           *              working on a common directory               *
           ************************************************************

-------------------------------------------------------------------------------------------
                                      ORCA LEAN-SCF
                              memory conserving SCF solver
-------------------------------------------------------------------------------------------

----------------------------------------D-I-I-S--------------------------------------------
Iteration    Energy (Eh)           Delta-E    RMSDP     MaxDP     DIISErr   Damp  Time(sec)
-------------------------------------------------------------------------------------------
               ***  Starting incremental Fock matrix formation  ***
    1    -163.6103157855583277     0.00e+00  1.34e-02  9.22e-02  2.57e-01  0.700   0.3
    2    -163.7019107666478703    -9.16e-02  9.30e-03  4.95e-02  1.18e-01  0.700   0.2
                               ***Turning on AO-DIIS***
    3    -163.7372517546169775    -3.53e-02  3.56e-03  2.12e-02  3.41e-02  0.700   0.2
    4    -163.7586573441267319    -2.14e-02  5.80e-03  3.46e-02  1.77e-02  0.000   0.2
    5    -163.8060191280215463    -4.74e-02  1.21e-03  7.17e-03  5.42e-03  0.000   0.3
                              *** Initializing SOSCF ***
---------------------------------------S-O-S-C-F--------------------------------------
Iteration    Energy (Eh)           Delta-E    RMSDP     MaxDP     MaxGrad    Time(sec)
--------------------------------------------------------------------------------------
    6    -163.8062891253088651    -2.70e-04  3.47e-04  2.04e-03  1.26e-03     0.3
               *** Restarting incremental Fock matrix formation ***
    7    -163.8062803321748788     8.79e-06  2.11e-04  1.08e-03  1.99e-04     0.4
    8    -163.8062820972027112    -1.77e-06  5.07e-05  4.51e-04  1.20e-04     0.3
    9    -163.8062824819346588    -3.85e-07  1.89e-05  1.32e-04  3.89e-05     0.3
   10    -163.8062825132512899    -3.13e-08  9.80e-06  7.24e-05  2.71e-05     0.3
   11    -163.8062825253779806    -1.21e-08  4.87e-06  2.92e-05  7.49e-06     0.3
   12    -163.8062825290014644    -3.62e-09  1.87e-06  1.24e-05  4.81e-06     0.3
                 **** Energy Check signals convergence ****

               *****************************************************
               *                     SUCCESS                       *
               *           SCF CONVERGED AFTER  12 CYCLES          *
               *****************************************************

Recomputing exchange energy using gridx3       ... done (    0.552 sec)
Old exchange energy                            :     -4.757350963 Eh
New exchange energy                            :     -4.757367822 Eh
Exchange energy change after final integration :     -0.000016860 Eh
Total energy after final integration           :   -163.806299391 Eh
             **** ENERGY FILE WAS UPDATED (orca.en.tmp) ****

----------------
TOTAL SCF ENERGY
----------------

Total Energy       :       -163.80629939134209 Eh           -4457.39602 eV

Components:
Nuclear Repulsion  :        114.66823497642270 Eh            3120.28131 eV
Electronic Energy  :       -278.47451750812553 Eh           -7577.67686 eV
One Electron Energy:       -446.78709379558228 Eh          -12157.69491 eV
Two Electron Energy:        168.31257628745675 Eh            4580.01804 eV

Virial components:
Potential Energy   :       -325.79692617853283 Eh           -8865.38507 eV
Kinetic Energy     :        161.99062678719073 Eh            4407.98905 eV
Virial Ratio       :          2.01120850409781

DFT components:
N(Alpha)           :       16.000006915220 electrons
N(Beta)            :       16.000006915220 electrons
N(Total)           :       32.000013830441 electrons
E(X)               :      -18.855169222214 Eh       
E(C)               :       -1.197929970651 Eh       
E(XC)              :      -20.053099192865 Eh       

---------------
SCF CONVERGENCE
---------------

  Last Energy change         ...    3.6235e-09  Tolerance :   1.0000e-08
  Last MAX-Density change    ...    1.2449e-05  Tolerance :   1.0000e-07
  Last RMS-Density change    ...    1.8725e-06  Tolerance :   5.0000e-09
  Last DIIS Error            ...    1.2634e-03  Tolerance :   5.0000e-07
  Last Orbital Gradient      ...    4.8115e-06  Tolerance :   1.0000e-05
  Last Orbital Rotation      ...    5.0941e-06  Tolerance :   1.0000e-05


----------------
ORBITAL ENERGIES
----------------

  NO   OCC          E(Eh)            E(eV) 
   0   2.0000     -14.327221      -389.8635 
   1   2.0000     -14.316459      -389.5707 
   2   2.0000      -6.769732      -184.2138 
   3   2.0000      -6.738494      -183.3637 
   4   2.0000      -0.886281       -24.1169 
   5   2.0000      -0.826766       -22.4975 
   6   2.0000      -0.561650       -15.2833 
   7   2.0000      -0.525923       -14.3111 
   8   2.0000      -0.484210       -13.1760 
   9   2.0000      -0.452786       -12.3209 
  10   2.0000      -0.417282       -11.3548 
  11   2.0000      -0.376058       -10.2331 
  12   2.0000      -0.326655        -8.8887 
  13   2.0000      -0.315457        -8.5840 
  14   2.0000      -0.290616        -7.9081 
  15   2.0000      -0.269582        -7.3357 
  16   0.0000      -0.030096        -0.8190 
  17   0.0000       0.051896         1.4122 
  18   0.0000       0.073042         1.9876 
  19   0.0000       0.111472         3.0333 
  20   0.0000       0.119012         3.2385 
  21   0.0000       0.133038         3.6201 
  22   0.0000       0.161394         4.3918 
  23   0.0000       0.183695         4.9986 
  24   0.0000       0.196801         5.3552 
  25   0.0000       0.203317         5.5325 
  26   0.0000       0.213211         5.8018 
*Only the first 10 virtual orbitals were printed.

                    ********************************
                    * MULLIKEN POPULATION ANALYSIS *
                    ********************************

-----------------------
MULLIKEN ATOMIC CHARGES
-----------------------
   0 N :   -0.188241
   1 B :   -0.033323
   2 N :   -0.102451
   3 B :    0.053987
   4 H :    0.163310
   5 H :   -0.081430
   6 H :   -0.096170
   7 H :    0.119771
   8 H :    0.118666
   9 H :    0.138544
  10 H :   -0.041696
  11 H :   -0.050966
Sum of atomic charges:    0.0000000

--------------------------------
MULLIKEN REDUCED ORBITAL CHARGES
--------------------------------
  0 N s       :     3.385154  s :     3.385154
      pz      :     1.298756  p :     3.791995
      px      :     1.279739
      py      :     1.213500
      dz2     :     0.002348  d :     0.011093
      dxz     :     0.003109
      dyz     :     0.000710
      dx2y2   :     0.003027
      dxy     :     0.001899

  1 B s       :     2.855794  s :     2.855794
      pz      :     0.700542  p :     2.085861
      px      :     0.708937
      py      :     0.676381
      dz2     :     0.024338  d :     0.091668
      dxz     :     0.011820
      dyz     :     0.023410
      dx2y2   :     0.008147
      dxy     :     0.023952

  2 N s       :     3.369868  s :     3.369868
      pz      :     1.369529  p :     3.721215
      px      :     1.226109
      py      :     1.125577
      dz2     :     0.000986  d :     0.011368
      dxz     :     0.001078
      dyz     :     0.001885
      dx2y2   :     0.003823
      dxy     :     0.003595

  3 B s       :     2.978218  s :     2.978218
      pz      :     0.300414  p :     1.898446
      px      :     0.682132
      py      :     0.915900
      dz2     :     0.007991  d :     0.069349
      dxz     :     0.015150
      dyz     :     0.003792
      dx2y2   :     0.021142
      dxy     :     0.021273

  4 H s       :     0.773224  s :     0.773224
      pz      :     0.020888  p :     0.063466
      px      :     0.014674
      py      :     0.027904

  5 H s       :     1.070059  s :     1.070059
      pz      :     0.001249  p :     0.011371
      px      :     0.007419
      py      :     0.002703

  6 H s       :     1.084289  s :     1.084289
      pz      :     0.006554  p :     0.011882
      px      :     0.001794
      py      :     0.003533

  7 H s       :     0.835005  s :     0.835005
      pz      :     0.010823  p :     0.045225
      px      :     0.013639
      py      :     0.020763

  8 H s       :     0.836070  s :     0.836070
      pz      :     0.016071  p :     0.045264
      px      :     0.018961
      py      :     0.010232

  9 H s       :     0.815984  s :     0.815984
      pz      :     0.010567  p :     0.045472
      px      :     0.013331
      py      :     0.021573

 10 H s       :     1.029397  s :     1.029397
      pz      :     0.001067  p :     0.012299
      px      :     0.003385
      py      :     0.007847

 11 H s       :     1.038716  s :     1.038716
      pz      :     0.000790  p :     0.012250
      px      :     0.002544
      py      :     0.008915



                     *******************************
                     * LOEWDIN POPULATION ANALYSIS *
                     *******************************

----------------------
LOEWDIN ATOMIC CHARGES
----------------------
   0 N :   -0.018233
   1 B :   -0.199644
   2 N :    0.059686
   3 B :   -0.003638
   4 H :    0.113544
   5 H :   -0.056994
   6 H :   -0.053166
   7 H :    0.074203
   8 H :    0.073320
   9 H :    0.091700
  10 H :   -0.043200
  11 H :   -0.037578

-------------------------------
LOEWDIN REDUCED ORBITAL CHARGES
-------------------------------
  0 N s       :     3.091082  s :     3.091082
      pz      :     1.347206  p :     3.896323
      px      :     1.304165
      py      :     1.244951
      dz2     :     0.006673  d :     0.030829
      dxz     :     0.008238
      dyz     :     0.002265
      dx2y2   :     0.007679
      dxy     :     0.005975

  1 B s       :     2.717530  s :     2.717530
      pz      :     0.769256  p :     2.253255
      px      :     0.765018
      py      :     0.718980
      dz2     :     0.063139  d :     0.228860
      dxz     :     0.025322
      dyz     :     0.060474
      dx2y2   :     0.017845
      dxy     :     0.062080

  2 N s       :     3.087074  s :     3.087074
      pz      :     1.329683  p :     3.821563
      px      :     1.305541
      py      :     1.186339
      dz2     :     0.002547  d :     0.031677
      dxz     :     0.002989
      dyz     :     0.005587
      dx2y2   :     0.010331
      dxy     :     0.010223

  3 B s       :     2.787860  s :     2.787860
      pz      :     0.336013  p :     2.042122
      px      :     0.742198
      py      :     0.963911
      dz2     :     0.020063  d :     0.173656
      dxz     :     0.034919
      dyz     :     0.009992
      dx2y2   :     0.051534
      dxy     :     0.057147

  4 H s       :     0.662951  s :     0.662951
      pz      :     0.072994  p :     0.223506
      px      :     0.041576
      py      :     0.108935

  5 H s       :     1.026650  s :     1.026650
      pz      :     0.005745  p :     0.030344
      px      :     0.017068
      py      :     0.007531

  6 H s       :     1.022141  s :     1.022141
      pz      :     0.015865  p :     0.031025
      px      :     0.005794
      py      :     0.009366

  7 H s       :     0.803910  s :     0.803910
      pz      :     0.025820  p :     0.121887
      px      :     0.033992
      py      :     0.062075

  8 H s       :     0.805066  s :     0.805066
      pz      :     0.042979  p :     0.121614
      px      :     0.054006
      py      :     0.024629

  9 H s       :     0.787234  s :     0.787234
      pz      :     0.029019  p :     0.121065
      px      :     0.030184
      py      :     0.061862

 10 H s       :     1.011146  s :     1.011146
      pz      :     0.002992  p :     0.032054
      px      :     0.009778
      py      :     0.019284

 11 H s       :     1.005678  s :     1.005678
      pz      :     0.002596  p :     0.031900
      px      :     0.007659
      py      :     0.021645



                      *****************************
                      * MAYER POPULATION ANALYSIS *
                      *****************************

  NA   - Mulliken gross atomic population
  ZA   - Total nuclear charge
  QA   - Mulliken gross atomic charge
  VA   - Mayer's total valence
  BVA  - Mayer's bonded valence
  FA   - Mayer's free valence

  ATOM       NA         ZA         QA         VA         BVA        FA
  0 N      7.1882     7.0000    -0.1882     3.3223     3.3223     0.0000
  1 B      5.0333     5.0000    -0.0333     3.6825     3.6825     0.0000
  2 N      7.1025     7.0000    -0.1025     3.4340     3.4340     0.0000
  3 B      4.9460     5.0000     0.0540     3.3914     3.3914    -0.0000
  4 H      0.8367     1.0000     0.1633     1.0725     1.0725     0.0000
  5 H      1.0814     1.0000    -0.0814     0.9485     0.9485     0.0000
  6 H      1.0962     1.0000    -0.0962     0.9546     0.9546     0.0000
  7 H      0.8802     1.0000     0.1198     0.9946     0.9946     0.0000
  8 H      0.8813     1.0000     0.1187     0.9944     0.9944    -0.0000
  9 H      0.8615     1.0000     0.1385     0.9827     0.9827     0.0000
 10 H      1.0417     1.0000    -0.0417     0.9518     0.9518    -0.0000
 11 H      1.0510     1.0000    -0.0510     0.9707     0.9707     0.0000

  Mayer bond orders larger than 0.100000
B(  0-N ,  1-B ) :   0.9412 B(  0-N ,  4-H ) :   0.4493 B(  0-N ,  7-H ) :   0.9646 
B(  0-N ,  8-H ) :   0.9641 B(  1-B ,  2-N ) :   0.7018 B(  1-B ,  5-H ) :   0.9456 
B(  1-B ,  6-H ) :   0.9405 B(  2-N ,  3-B ) :   1.3059 B(  2-N ,  4-H ) :   0.5255 
B(  2-N ,  9-H ) :   0.9268 B(  3-B , 10-H ) :   0.9652 B(  3-B , 11-H ) :   0.9620 


-------
TIMINGS
-------

Total SCF time: 0 days 0 hours 0 min 4 sec 

Total time                  ....       4.560 sec
Sum of individual times     ....       4.220 sec  ( 92.5%)

SCF preparation             ....       0.151 sec  (  3.3%)
Fock matrix formation       ....       3.911 sec  ( 85.8%)
  Startup                   ....       0.003 sec  (  0.1% of F)
  Split-RI-J                ....       0.296 sec  (  7.6% of F)
  Chain of spheres X        ....       2.888 sec  ( 73.9% of F)
  XC integration            ....       0.916 sec  ( 23.4% of F)
    XC Preparation          ....       0.000 sec  (  0.0% of XC)
    Basis function eval.    ....       0.271 sec  ( 29.6% of XC)
    Density eval.           ....       0.136 sec  ( 14.9% of XC)
    XC-Functional eval.     ....       0.064 sec  (  7.0% of XC)
    XC-Potential eval.      ....       0.150 sec  ( 16.4% of XC)
Diagonalization             ....       0.000 sec  (  0.0%)
Density matrix formation    ....       0.021 sec  (  0.5%)
Total Energy calculation    ....       0.013 sec  (  0.3%)
Population analysis         ....       0.015 sec  (  0.3%)
Orbital Transformation      ....       0.011 sec  (  0.2%)
Orbital Orthonormalization  ....       0.000 sec  (  0.0%)
DIIS solution               ....       0.052 sec  (  1.1%)
SOSCF solution              ....       0.047 sec  (  1.0%)
Finished LeanSCF after   4.6 sec

Maximum memory used throughout the entire LEANSCF-calculation: 8.7 MB


-------------------------------------------------------------------------------
                          DFT DISPERSION CORRECTION                            
                                                                               
                              DFTD3 V3.1  Rev 1                                
                          USING Becke-Johnson damping                          
-------------------------------------------------------------------------------
The B3LYP functional is recognized
Active option DFTDOPT                   ...         4   

molecular C6(AA) [au] = 1076.720593 


            DFT-D V3
 parameters
 s6 scaling factor         :     1.0000 
 a1 scaling factor         :     0.3981 
 s8 scaling factor         :     1.9889 
 a2 scaling factor         :     4.4211 
 ad hoc parameters k1-k3   :    16.0000     1.3333    -4.0000 

 Edisp/kcal,au: -8.021160861757  -0.012782532117 
 E6   /kcal   :  -3.921043868 
 E8   /kcal   :  -4.100116994 
 % E8         :  51.116254420 

-------------------------   ----------------
Dispersion correction           -0.012782532
-------------------------   ----------------


-------------------------   --------------------
FINAL SINGLE POINT ENERGY      -163.819081923459
-------------------------   --------------------



           ************************************************************
           *        Program running with 6 parallel MPI-processes     *
           *              working on a common directory               *
           ************************************************************
------------------------------------------------------------------------------
                         ORCA SCF GRADIENT CALCULATION
------------------------------------------------------------------------------

Nuc. rep. gradient        (SHARK) ... done (  0.0 sec)
HCore & Overlap gradient  (SHARK) ... done (  0.0 sec)
Split-RIJ-J gradient      (SHARK) ... done (  0.2 sec)
done (  2.2 sec)
XC gradient                       ... done (  0.5 sec)
Dispersion correction             ... done (  0.0 sec)

-------------------
DISPERSION GRADIENT
-------------------

   1   N   :    0.000208416    0.000254901    0.000231362
   2   B   :    0.000209616    0.000035093   -0.000039528
   3   N   :   -0.000046354   -0.000180355   -0.000047964
   4   B   :   -0.000498874   -0.000254377   -0.000174334
   5   H   :    0.000060364    0.000017529    0.000058662
   6   H   :    0.000155515    0.000012567   -0.000083860
   7   H   :    0.000148075    0.000095860   -0.000135740
   8   H   :    0.000048026    0.000235730    0.000143774
   9   H   :    0.000120951    0.000121232    0.000173517
  10   H   :    0.000001312   -0.000233325    0.000018601
  11   H   :   -0.000135253   -0.000061231   -0.000049188
  12   H   :   -0.000271792   -0.000043624   -0.000095300

Difference to translation invariance:
           :    0.0000000000    0.0000000000    0.0000000000

Difference to rotation invariance:
           :    0.0000000000   -0.0000000000    0.0000000000

Norm of the Dispersion gradient    ...    0.0009899599
RMS gradient                       ...    0.0001649933
MAX gradient                       ...    0.0004988739

------------------
CARTESIAN GRADIENT
------------------

   1   N   :    0.000044922    0.000098804    0.000029169
   2   B   :    0.000026788    0.000005090    0.000001201
   3   N   :   -0.000057526   -0.000000236   -0.000119052
   4   B   :    0.000015160    0.000055188    0.000033854
   5   H   :    0.000013236    0.000031073    0.000027056
   6   H   :    0.000012098   -0.000068670   -0.000024066
   7   H   :   -0.000020693   -0.000042885    0.000009585
   8   H   :   -0.000050687   -0.000049649   -0.000030195
   9   H   :    0.000042127    0.000013530    0.000064967
  10   H   :   -0.000026941    0.000033400    0.000010678
  11   H   :    0.000009476   -0.000034207   -0.000028798
  12   H   :   -0.000007959   -0.000041438    0.000025601

Difference to translation invariance:
           :    0.0000000000   -0.0000000000    0.0000000000

Difference to rotation invariance:
           :   -0.0001059930    0.0000298250   -0.0000781444

Norm of the Cartesian gradient     ...    0.0002521076
RMS gradient                       ...    0.0000420179
MAX gradient                       ...    0.0001190516

-------
TIMINGS
-------

Total SCF gradient time     ....        2.923 sec

Densities                   ....       0.000 sec  (  0.0%)
One electron gradient       ....       0.025 sec  (  0.9%)
RI-J Coulomb gradient       ....       0.156 sec  (  5.3%)
COSX gradient               ....       2.245 sec  ( 76.8%)
XC gradient                 ....       0.453 sec  ( 15.5%)

Maximum memory used throughout the entire SCFGRAD-calculation: 27.0 MB


           ************************************************************
           *        Program running with 6 parallel MPI-processes     *
           *              working on a common directory               *
           ************************************************************

------------------------------------------------------------------------------
                              ORCA PROPERTY CALCULATIONS
------------------------------------------------------------------------------

GBWName                                 ... orca.gbw
Number of atoms                         ...     12
Number of basis functions               ...     96
Max core memory                         ...   4096 MB

Electric properties:
Dipole moment                           ... YES
Quadrupole moment                       ...  NO
Static polarizability (Dipole/Dipole)   ...  NO
Static polarizability (Dipole/Quad.)    ...  NO
Static polarizability (Quad./Quad.)     ...  NO
Static polarizability (Velocity)        ...  NO
Static hyperpolarizability              ...  NO

Atomic electric properties:
Dipole moment                           ...  NO
Quadrupole moment                       ...  NO
Static polarizability                   ...  NO

Choice of electric origin               ... Center of mass
Position of electric origin             ...    -0.010207    -0.079577     0.076172

General magnetic properties:
Magnetizability                         ...  NO

EPR properties:
g-Tensor (aka g-matrix)                 ...  NO
Zero-Field splitting spin-orbit         ...  NO
Zero-field splitting spin-spin          ...  NO
Hyperfine couplings                     ...  NO (   0 nuclei)
Quadrupole couplings                    ...  NO (   0 nuclei)
Contact density                         ...  NO (   0 nuclei)

NMR properties:
Chemical shifts                         ...  NO (   0 nuclei)
Spin-rotation constants                 ...  NO (   0 nuclei)
Spin-spin couplings                     ...  NO (   0 nuclei,    0 pairs)

Choice of magnetic origin               ... GIAO
Position of magnetic origin             ...     0.000000     0.000000     0.000000

Properties with geometric perturbations:
SCF Hessian                             ...  NO
IR spectrum                             ...  NO
VCD spectrum                            ...  NO
X-ray spectroscopy properties:
SCF XES/XAS/RIXS spectra                ...  NO

SCF SOC stabilization energy            ...  NO
Diagonal Born-Oppenheimer correction    ...  NO

-------------
DIPOLE MOMENT
-------------

Method             : SCF
Type of density    : Electron Density
Multiplicity       :   1
Irrep              :   0
Energy             :  -163.8062993913420939 Eh
Basis              : AO
                                X                 Y                 Z
Electronic contribution:     -0.695934629      -0.970844436       0.361509239
Nuclear contribution   :      0.709213166       0.907184529       0.601792762
                        -----------------------------------------
Total Dipole Moment    :      0.013278538      -0.063659906       0.963302000
                        -----------------------------------------
Magnitude (a.u.)       :      0.965494509
Magnitude (Debye)      :      2.454092012



--------------------
Rotational spectrum 
--------------------
 
Rotational constants in cm-1:             0.548848             0.146805             0.138357 
Rotational constants in MHz :         16454.040732          4401.099404          4147.840276 

Dipole components along the rotational axes: 
x,y,z [a.u.] :    -0.342669    -0.525471     0.733919 
x,y,z [Debye]:    -0.870994    -1.335642     1.865475 

 

Dipole moment calculation done in   0.0 sec 

Maximum memory used throughout the entire PROP-calculation: 5.1 MB

--------------------------------
SUGGESTED CITATIONS FOR THIS RUN
--------------------------------

Below you find a list of papers that are relevant to this ORCA run
We neither can nor want to force you to cite these papers, but we appreciate if you do
You receive ORCA, which is the product of decades of hard work by many enthusiastic individuals, for free
The only thing we kindly ask in return is that you cite our papers,
We deeply appreciate it, if you show your appreciation for ORCA by not just citing the generic ORCA reference.

Please note that relegating all ORCA citations to the supporting information does *not* help us.
SI sections are not indexed - citations you put there will not count into any citation statistics
But we need these citations in order to attract the funding resources that allow us to do what we are doing

Therefore, if you are a happy ORCA user, please consider citing a few of the papers listed below in the main body of your paper

In addition to the list printed below, the program has created the file orca.bibtex that contains the list in bibtex format
You can import this file easily into all common literature databanks and citation aid programs


List of essential papers. We consider these as the minimum necessary citations

  1. Neese, F.
     Software update: the ORCA program system, version 6.0
     WIRES Comput. Molec. Sci. 2025 15(1), e70019
     doi.org/10.1002/wcms.7019

List of papers to cite with high priority. The work reported in these papers was absolutely
necessary for this run to complete.
Our perspective: the developers of density functionals and basis sets usually get cited in chemistry papers
Good! But without the algorithms to do something with them, the functionals or basis sets would not do anything.
Hence, in our opinion, the algorithm design and method developments papers are equally worthy of getting cited

  1. Neese, F.
     An improvement of the resolution of the identity approximation for the formation of the Coulomb matrix
     J. Comp. Chem. 2003 24(14), 1740-1747
     doi.org/10.1002/jcc.10318
  2. Neese, F.; Wennmohs, F.; Hansen, A.; Becker, U.
     Efficient, approximate and parallel Hartree-Fock and hybrid DFT calculations. A 'chain-of-spheres' algorithm for the Hartree-Fock exchange
     Chem. Phys. 2009 356(1-3), 98-109
     doi.org/10.1016/j.chemphys.2008.10.036
  3. Grimme, S.; Antony, J.; Ehrlich, S.; Krieg, H.
     A consistent and accurate ab initio parametrization of density functional dispersion correction (DFT-D) for the 94 elements H-Pu
     J. Chem. Phys. 2010 132 , 154104
     doi.org/10.1063/1.3382344
  4. Grimme, S.; Ehrlich, S.; Goerigk, L.
     Effect of the damping function in dispersion corrected density functional theory
     J. Comput. Chem. 2011 32(7), 1456-1465
     doi.org/10.1002/jcc.21759
  5. Helmich-Paris, B.; de Souza, B.; Neese, F.; Izsák, R.
     An improved chain of spheres for exchange algorithm
     J. Chem. Phys. 2021 155(10), 104109
     doi.org/10.1063/5.0058766
  6. Neese, F.
     The SHARK Integral Generation and Digestion System
     J. Comp. Chem. 2022 44(3), 381
     doi.org/10.1002/jcc.26942

List of suggested additional citations. These are papers that are important in the 'surrounding' of 
of this run, or papers that preceded the highly important papers. If you like your results we are grateful for a citation.

  1. Izsak, R.; Neese, F.
     An overlap fitted chain of spheres exchange method
     J. Chem. Phys. 2011 135 , 144105
     doi.org/10.1063/1.3646921
  2. Izsak, R.; Hansen, A.; Neese, F.
     The resolution of identity and chain of spheres approximations for the LPNO-CCSD singles Fock term
     Molec. Phys. 2012 110 , 2413-2417
     doi.org/10.1080/00268976.2012.687466
  3. Neese, F.
     The ORCA program system
     WIRES Comput. Molec. Sci. 2012 2(1), 73-78
     doi.org/10.1002/wcms.81
  4. Izsak, R.; Neese, F.; Klopper, W.
     Robust fitting techniques in the chain of spheres approximation to the Fock exchange: The role of the complementary space
     J. Chem. Phys. 2013 139 , 
     doi.org/10.1063/1.4819264
  5. Neese, F.
     Software update: the ORCA program system, version 4.0
     WIRES Comput. Molec. Sci. 2018 8(1), 1-6
     doi.org/10.1002/wcms.1327
  6. Neese, F.; Wennmohs, F.; Becker, U.; Riplinger, C.
     The ORCA quantum chemistry program package
     J. Chem. Phys. 2020 152(22), 224108
     doi.org/10.1063/5.0004608
  7. Neese, F.
     Software update: The ORCA program system—Version 5.0
     WIRES Comput. Molec. Sci. 2022 12(1), e1606
     doi.org/10.1002/wcms.1606

List of optional additional citations

  1. Neese, F.
     Approximate second-order SCF convergence for spin unrestricted wavefunctions
     Chem. Phys. Lett. 2000 325(1-3), 93-98
     doi.org/10.1016/s0009-2614(00)00662-x

Timings for individual modules:

Sum of individual times          ...       10.257 sec (=   0.171 min)
Startup calculation              ...        1.042 sec (=   0.017 min)  10.2 %
SCF iterations                   ...        5.419 sec (=   0.090 min)  52.8 %
Property calculations            ...        0.424 sec (=   0.007 min)   4.1 %
SCF Gradient evaluation          ...        3.373 sec (=   0.056 min)  32.9 %
                             ****ORCA TERMINATED NORMALLY****
TOTAL RUN TIME: 0 days 0 hours 0 minutes 10 seconds 865 msec
