
                                 *****************
                                 * O   R   C   A *
                                 *****************

                                            #,                                       
                                            ###                                      
                                            ####                                     
                                            #####                                    
                                            ######                                   
                                           ########,                                 
                                     ,,################,,,,,                         
                               ,,#################################,,                 
                          ,,##########################################,,             
                       ,#########################################, ''#####,          
                    ,#############################################,,   '####,        
                  ,##################################################,,,,####,       
                ,###########''''           ''''###############################       
              ,#####''   ,,,,##########,,,,          '''####'''          '####       
            ,##' ,,,,###########################,,,                        '##       
           ' ,,###''''                  '''############,,,                           
         ,,##''                                '''############,,,,        ,,,,,,###''
      ,#''                                            '''#######################'''  
     '                                                          ''''####''''         
             ,#######,   #######,   ,#######,      ##                                
            ,#'     '#,  ##    ##  ,#'     '#,    #''#        ,####,    ,#,          
            ##       ##  ##   ,#'  ##            #'  '#       #'       ,# #          
            ##       ##  #######   ##           ,######,      #####,      #          
            '#,     ,#'  ##    ##  '#,     ,#' ,#      #,     #,   #      #          
             '#######'   ##     ##  '#######'  #'      '#     '####' #    #          



                #########################################################
                #                        -***-                          #
                #          Department of theory and spectroscopy        #
                #                                                       #
                #                      Frank Neese                      #
                #                                                       #
                #     Directorship, Architecture, Infrastructure        #
                #                    SHARK, DRIVERS                     #
                #        Core code/Algorithms in most modules           #
                #                                                       #
                #        Max Planck Institute fuer Kohlenforschung      #
                #                Kaiser Wilhelm Platz 1                 #
                #                 D-45470 Muelheim/Ruhr                 #
                #                      Germany                          #
                #                                                       #
                #                  All rights reserved                  #
                #                        -***-                          #
                #########################################################


                         Program Version 6.1.0  -  RELEASE   -
                                (GIT: $679e74b$)
                          ($2025-06-10 18:02:51 +0200$)


 With contributions from (in alphabetic order):
[Max-Planck-Institut fuer Kohlenforschung]                               
  Daniel Aravena         : Magnetic Suceptibility                        
  Michael Atanasov       : Ab Initio Ligand Field Theory (pilot matlab implementation)
  Alexander A. Auer      : GIAO ZORA, VPT2 properties, NMR spectrum      
  Ute Becker             : All parallelization in ORCA, NUMFREQ, NUMCALC 
  Giovanni Bistoni       : ED, misc. LED, open-shell LED, HFLD           
  Dmytro Bykov           : pre 5.0 version of the SCF Hessian            
  Marcos Casanova-Páez   : Triplet and SCS-CIS(D). UHF-(DLPNO)-IP/EA/STEOM-CCSD. UHF-CVS-IP/STEOM-CCSD   
  Vijay G. Chilkuri      : MRCI spin determinant printing, contributions to CSF-ICE 
  Pauline Colinet        : FMM embedding                                 
  Dipayan Datta          : RHF DLPNO-CCSD density                        
  Achintya Kumar Dutta   : EOM-CC, STEOM-CC                              
  Nicolas Foglia         : Exact transition moments, OPA infrastructure, MCD improvements    
  Dmitry Ganyushin       : Spin-Orbit,Spin-Spin,Magnetic field MRCI      
  Miquel Garcia-Rates    : C-PCM and meta-GGA Hessian, CCSD/C-PCM, Gaussian charge scheme 
  Tiago L. C. Gouveia    : GS-ROHF, GS-ROCIS                             
  Yang Guo               : DLPNO-NEVPT2, F12-NEVPT2, CIM, IAO-localization        
  Andreas Hansen         : Spin unrestricted coupled pair/coupled cluster methods 
  Ingolf Harden          : AUTO-CI MPn and infrastructure                
  Benjamin Helmich-Paris : MC-RPA, TRAH-(SCF,CASSCF), AVAS, COSX integrals, SCF dyn. polar., MC-PDFT, srDFT 
  Lee Huntington         : MR-EOM, pCC                                   
  Robert Izsak           : Overlap fitted RIJCOSX, COSX-SCS-MP3, EOM     
  Riya Kayal             : Wick's Theorem for AUTO-CI, AUTO-CI UHF-CCSDT 
  Emily Kempfer          : AUTO-CI RHF CISDT and CCSDT, approximate NEVPT4
  Christian Kollmar      : KDIIS, OOCD, Brueckner-CCSD(T), CCSD density, CASPT2, CASPT2-K, improved NEVPT2 
  Axel Koslowski         : Symmetry handling                             
  Simone Kossmann        : meta-GGA functionals, TD-DFT gradient, OOMP2, (MP2 Hessian; deprecated post 5.0) 
  Lucas Lang             : DCDCAS, Hyperfine gauge corrections, ICE-SOC+SSC
  Marvin Lechner         : AUTO-CI (C++ implementation), FIC-MRCC        
  Spencer Leger          : CASSCF response                               
  Dagmar Lenk            : GEPOL surface, SMD, ORCA-2-JSON               
  Dimitrios Liakos       : Extrapolation schemes; Compound Job, Property file
  Dimitrios Manganas     : Further ROCIS development; embedding schemes. LFT, Crystal Embedding 
  Dimitrios Pantazis     : SARC Basis sets                               
  Anastasios Papadopoulos: AUTO-CI, single reference methods and gradients 
  Taras Petrenko         : pre 6.0 DFT Hessian and TD-DFT gradient,  ECA, NRVS 
  Petra Pikulova         : Analytic Raman intensities                    
  Peter Pinski           : DLPNO-MP2, DLPNO-MP2 Gradient                 
  Shashank Vittal Rao    : ES-AILFT, MagRelax                            
  Christoph Reimann      : Effective Core Potentials                     
  Marius Retegan         : Local ZFS, SOC                                
  Christoph Riplinger    : Optimizer, TS searches, QM/MM, DLPNO-CCSD(T), (RO)-DLPNO pert. Triples 
  Michael Roemelt        : Original ROCIS implementation, recursive CI coupling coefficients
  Masaaki Saitow         : Open-shell DLPNO-CCSD energy and density      
  Barbara Sandhoefer     : DKH picture change effects                    
  Yorick L. A. Schmerwitz: GMF and freeze-and-release deltaSCF, NEB S-IDPP initial path                    
  Kantharuban Sivalingam : CASSCF convergence/infrastructure, NEVPT2, NEVPT3, NEVPT4(SD), FIC-MRCI and CEPA variants
  Bernardo de Souza      : ESD, SOC TD-DFT                               
  Georgi L. Stoychev     : AutoAux, RI-MP2 NMR, DLPNO-MP2 response, X2C  
  Van Anh Tran           : RI-MP2 g-tensors                              
  Willem Van den Heuvel  : Paramagnetic NMR                              
  Zikuan Wang            : NOTCH, Electric field optimization            
  Frank Wennmohs         : Technical directorship and infrastructure     
  Hang Xu                : AUTO-CI-Response properties                   
                                                                         
[FACCTs GmbH]                                                            
  Markus Bursch, Nicolas Foglia, Miquel Garcia-Rates, Ingolf Harden, Hagen Neugebauer, Anastasios Papadopoulos, 
  Christoph Riplinger, Bernardo de Souza, Georgi L. Stoychev                                                    
                                                                 
  APM, various basis sets, CI-OPT, improved COSX, DLPNO-Multilevel,           
  DOCKER, DRACO, updates on ESD, Fragmentator, GOAT, IRC, LR-CPCM, L-BFGS, MBIS, meta-GGA TD-DFT gradient, ML-optimized integration grids, 
  MM, NACMEs, nearIR, NEB, NEB-TS, NL-DFT gradient (VV10), 2- and 3-layer-ONIOM, interface openCOSMO-RS, QMMM,   
  Crystal-QMMM, RESP, rigid body optimization, SF, symmetry and pop. for TD-DFT, various functionals, SOLVATOR                                   
                                                                         
[Other institutions]                                                     
  V. Asgeirsson          : NEB                                           
  Christoph Bannwarth    : sTDA-DFT, sTD-DFT, PBEh-3c, B97-3c, D3        
  Giovanni Bistoni       : ETS/NOCV, ADLD/ADEX, COVALED                  
  Martin Brehm           : Molecular dynamics                            
  Ronald Cardenas        : ETS/NOCV                                      
  Martina Colucci        : COVALED                                       
  Sebastian Ehlert       : rSCAN, r2SCAN, r2SCAN-3c, D4, dhf basis sets  
  Marvin Friede          : D4 for Fr, Ra, Ac-Lr                          
  Lars Goerigk           : TD-DFT with DH, B97 family of functionals     
  Stefan Grimme          : VdW corrections, initial TS optimization, DFT functionals, gCP, sTDA/sTD-DF 
  Waldemar Hujo          : DFT-NL                                        
  H. Jonsson             : NEB                                           
  Holger Kruse           : gCP                                           
  Marcel Mueller         : wB97X-3c, vDZP basis set                      
  Hagen Neugebauer       : wr2SCAN, Native XTB                           
  Gianluca Regni         : ADLD/ADEX                                     
  Tobias Risthaus        : pre 6.0 range-separated hybrid DFT and stability analysis
  Lukas Wittmann         : regularized MP2, r2SCAN double-hybrids, wr2SCAN        
                                                                         
We gratefully acknowledge several colleagues who have allowed us to      
interface, adapt or use parts of their codes:                            
  Ed Valeev, F. Pavosevic, A. Kumar             : LibInt (2-el integral package), F12 methods 
  Garnet Chan, S. Sharma, J. Yang, R. Olivares  : DMRG                   
  Ulf Ekstrom                                   : XCFun DFT Library      
  Mihaly Kallay                                 : mrcc  (arbitrary order and MRCC methods)
  Frank Weinhold                                : gennbo (NPA and NBO analysis)           
  Simon Mueller                                 : openCOSMO-RS                            
  Christopher J. Cramer and Donald G. Truhlar   : smd solvation model                     
  S Lehtola, MJT Oliveira, MAL Marques          : LibXC Library                           
  Liviu Ungur et al                             : ANISO software                          


 Your calculation uses the libint2 library for the computation of 2-el integrals
 For citations please refer to: http://libint.valeyev.net

 Your ORCA version has been built with support for libXC version: 7.0.0
 For citations please refer to: https://libxc.gitlab.io

 This ORCA versions uses:
   CBLAS   interface :  Fast vector & matrix operations
   LAPACKE interface :  Fast linear algebra routines
   SCALAPACK package :  Parallel linear algebra routines
   Shared memory     :  Shared parallel matrices
   BLAS/LAPACK       :  OpenBLAS 0.3.29  USE64BITINT DYNAMIC_ARCH NO_AFFINITY Zen SINGLE_THREADED
        Core in use  :  Zen
   Copyright (c) 2011-2014, The OpenBLAS Project


  ***********************************
  * Starting time: Wed Sep 10 13:35:46 2025
  * Host name:     wyk-Server
  * Process ID:    2294230
  * Working dir.:  /home/wyk/Documents/code/openQDC/MGMR/singlepointcalc/66/react
  ***********************************

Your calculation utilizes the atom-pairwise dispersion correction
with the Becke-Johnson damping scheme (D3BJ)


Warning: RI is on but no J-basis has been assigned. Assigning Def2/J (nothing to worry about!)
================================================================================

----- Orbital basis set information -----
Your calculation utilizes the basis: def2-SVP
   F. Weigend and R. Ahlrichs, Phys. Chem. Chem. Phys. 7, 3297 (2005).

----- AuxJ basis set information -----
Your calculation utilizes the auxiliary basis: def2/J
   H-Rn: F. Weigend, Phys. Chem. Chem. Phys. 8, 1057 (2006).
   Fr-Lr: K. Eichkorn, F. Weigend, O. Treutler, R. Ahlrichs; Theor. Chem. Acc. 97, 119 (1997).

================================================================================
                                        WARNINGS
                       Please study these warnings very carefully!
================================================================================


================================================================================
                                       INPUT FILE
================================================================================
NAME = orca.inp
|  1> ! B3LYP def2-SVP d3 EnGrad 
|  2> %pal nprocs 6 end 
|  3> *xyz 0 1 
|  4> C   -2.49354793998164 -0.03757721804034 1.20454536791666
|  5> C   -1.13077300292356 -0.07374767173633 1.82630727732501
|  6> N   -0.06589323325389 0.02998966045042 1.14774343863779
|  7> C   1.20289452965476 -0.01388009817953 1.83330257549028
|  8> H   -1.09969536950108 -0.19818944906753 2.93349699960517
|  9> H   -3.04552373277319 -0.96829618010633 1.42387457829569
| 10> H   -3.09075972858942 0.79023030968799 1.62541426346802
| 11> H   -2.40990159357708 0.08881868736943 0.11600908513453
| 12> H   1.81237159330124 -0.84088440445006 1.42973427721518
| 13> H   1.765432473907 0.91318853745224 1.62729742036517
| 14> H   1.12091900373683 -0.13968617337995 2.93399171654648
| 15> *
| 16> 
| 17>                          ****END OF INPUT****
================================================================================

                     *******************************
                     * Energy+Gradient Calculation *
                     *******************************

---------------------------------
CARTESIAN COORDINATES (ANGSTROEM)
---------------------------------
  C     -2.493548   -0.037577    1.204545
  C     -1.130773   -0.073748    1.826307
  N     -0.065893    0.029990    1.147743
  C      1.202895   -0.013880    1.833303
  H     -1.099695   -0.198189    2.933497
  H     -3.045524   -0.968296    1.423875
  H     -3.090760    0.790230    1.625414
  H     -2.409902    0.088819    0.116009
  H      1.812372   -0.840884    1.429734
  H      1.765432    0.913189    1.627297
  H      1.120919   -0.139686    2.933992

----------------------------
CARTESIAN COORDINATES (A.U.)
----------------------------
  NO LB      ZA    FRAG     MASS         X           Y           Z
   0 C     6.0000    0    12.011   -4.712123   -0.071011    2.276261
   1 C     6.0000    0    12.011   -2.136851   -0.139363    3.451221
   2 N     7.0000    0    14.007   -0.124520    0.056672    2.168921
   3 C     6.0000    0    12.011    2.273141   -0.026230    3.464440
   4 H     1.0000    0     1.008   -2.078123   -0.374524    5.543506
   5 H     1.0000    0     1.008   -5.755206   -1.829815    2.690733
   6 H     1.0000    0     1.008   -5.840689    1.493319    3.071588
   7 H     1.0000    0     1.008   -4.554054    0.167843    0.219225
   8 H     1.0000    0     1.008    3.424886   -1.589041    2.701806
   9 H     1.0000    0     1.008    3.336184    1.725676    3.075146
  10 H     1.0000    0     1.008    2.118230   -0.263969    5.544441

--------------------------------
INTERNAL COORDINATES (ANGSTROEM)
--------------------------------
 C      0   0   0     0.000000000000     0.00000000     0.00000000
 C      1   0   0     1.498349659721     0.00000000     0.00000000
 N      2   1   0     1.266956684782   122.69899762     0.00000000
 C      3   2   1     1.442823022117   118.82564478   179.91447521
 H      2   1   3     1.114594390964   116.12063113   179.98351126
 H      1   2   3     1.104092552598   110.60466893   120.98379761
 H      1   2   3     1.104109528380   110.60224658   238.86374155
 H      1   2   3     1.099037704132   110.15454456   359.95090085
 H      4   3   2     1.103750780328   109.55017781   121.98029609
 H      4   3   2     1.103785902172   109.50886396   238.12526146
 H      4   3   2     1.110884215680   114.16350158     0.00000000

---------------------------
INTERNAL COORDINATES (A.U.)
---------------------------
 C      0   0   0     0.000000000000     0.00000000     0.00000000
 C      1   0   0     2.831470509726     0.00000000     0.00000000
 N      2   1   0     2.394201157780   122.69899762     0.00000000
 C      3   2   1     2.726540371518   118.82564478   179.91447521
 H      2   1   3     2.106278149326   116.12063113   179.98351126
 H      1   2   3     2.086432550912   110.60466893   120.98379761
 H      1   2   3     2.086464630490   110.60224658   238.86374155
 H      1   2   3     2.076880271664   110.15454456   359.95090085
 H      4   3   2     2.085786694921   109.55017781   121.98029609
 H      4   3   2     2.085853065588   109.50886396   238.12526146
 H      4   3   2     2.099266934130   114.16350158     0.00000000

---------------------
BASIS SET INFORMATION
---------------------
There are 3 groups of distinct atoms

 Group   1 Type C   : 7s4p1d contracted to 3s2p1d pattern {511/31/1}
 Group   2 Type N   : 7s4p1d contracted to 3s2p1d pattern {511/31/1}
 Group   3 Type H   : 4s1p contracted to 2s1p pattern {31/1}

Atom   0C    basis set group =>   1
Atom   1C    basis set group =>   1
Atom   2N    basis set group =>   2
Atom   3C    basis set group =>   1
Atom   4H    basis set group =>   3
Atom   5H    basis set group =>   3
Atom   6H    basis set group =>   3
Atom   7H    basis set group =>   3
Atom   8H    basis set group =>   3
Atom   9H    basis set group =>   3
Atom  10H    basis set group =>   3
---------------------------------
AUXILIARY/J BASIS SET INFORMATION
---------------------------------
There are 3 groups of distinct atoms

 Group   1 Type C   : 12s5p4d2f1g contracted to 6s4p3d1f1g pattern {711111/2111/211/2/1}
 Group   2 Type N   : 12s5p4d2f1g contracted to 6s4p3d1f1g pattern {711111/2111/211/2/1}
 Group   3 Type H   : 5s2p1d contracted to 3s1p1d pattern {311/2/1}

Atom   0C    basis set group =>   1
Atom   1C    basis set group =>   1
Atom   2N    basis set group =>   2
Atom   3C    basis set group =>   1
Atom   4H    basis set group =>   3
Atom   5H    basis set group =>   3
Atom   6H    basis set group =>   3
Atom   7H    basis set group =>   3
Atom   8H    basis set group =>   3
Atom   9H    basis set group =>   3
Atom  10H    basis set group =>   3


           ************************************************************
           *        Program running with 6 parallel MPI-processes     *
           *              working on a common directory               *
           ************************************************************
------------------------------------------------------------------------------
                             ORCA STARTUP CALCULATIONS
                           -- RI-GTO INTEGRALS CHOSEN --
------------------------------------------------------------------------------
------------------------------------------------------------------------------
                   ___                                                        
                  /   \      - P O W E R E D   B Y -                         
                 /     \                                                     
                 |  |  |   _    _      __       _____    __    __             
                 |  |  |  | |  | |    /  \     |  _  \  |  |  /  |          
                  \  \/   | |  | |   /    \    | | | |  |  | /  /          
                 / \  \   | |__| |  /  /\  \   | |_| |  |  |/  /          
                |  |  |   |  __  | /  /__\  \  |    /   |      \           
                |  |  |   | |  | | |   __   |  |    \   |  |\   \          
                \     /   | |  | | |  |  |  |  | |\  \  |  | \   \       
                 \___/    |_|  |_| |__|  |__|  |_| \__\ |__|  \__/        
                                                                              
                      - O R C A' S   B I G   F R I E N D -                    
                                      &                                       
                       - I N T E G R A L  F E E D E R -                       
                                                                              
 v1 FN, 2020, v2 2021, v3 2022-2024                                           
------------------------------------------------------------------------------


----------------------
SHARK INTEGRAL PACKAGE
----------------------

Number of atoms                             ...     11
Number of basis functions                   ...     91
Number of shells                            ...     45
Maximum angular momentum                    ...      2
Integral batch strategy                     ... SHARK/LIBINT Hybrid
RI-J (if used) integral strategy            ... SPLIT-RIJ (Revised 2003 algorithm where possible)
Printlevel                                  ...      1
Contraction scheme used                     ... SEGMENTED contraction
Prescreening option                         ... SCHWARTZ
   Thresh                                   ... 2.500e-11
   Tcut                                     ... 2.500e-12
   Tpresel                                  ... 2.500e-12 
Coulomb Range Separation                    ... NOT USED
Exchange Range Separation                   ... NOT USED
Multipole approximations                    ... NOT USED
Finite Nucleus Model                        ... NOT USED
CABS basis                                  ... NOT available
Auxiliary Coulomb fitting basis             ... AVAILABLE
   # of basis functions in Aux-J            ...    273
   # of shells in Aux-J                     ...     95
   Maximum angular momentum in Aux-J        ...      4
Auxiliary J/K fitting basis                 ... NOT available
Auxiliary Correlation fitting basis         ... NOT available
Auxiliary 'external' fitting basis          ... NOT available

Checking pre-screening integrals            ... done (  0.0 sec) Dimension = 45
   => SHARK Basis and OBASIS are compatible. Storing Pre-screening
Shell pair information
Shell pair cut-off parameter TPreSel        ...   2.5e-12
Total number of shell pairs                 ...      1035
Shell pairs after pre-screening             ...      1016
Total number of primitive shell pairs       ...      3559
Primitive shell pairs kept                  ...      2816
          la=0 lb=0:    344 shell pairs
          la=1 lb=0:    384 shell pairs
          la=1 lb=1:    116 shell pairs
          la=2 lb=0:    102 shell pairs
          la=2 lb=1:     60 shell pairs
          la=2 lb=2:     10 shell pairs

Checking whether 4 symmetric matrices of dimension 91 fit in memory
:Max Core in MB      =   4096.00
 MB in use           =      4.56
 MB left             =   4091.44
 MB needed           =      0.13
 Data fit in memory  = YES
Calculating RI/J V-Matrix + Cholesky decomp.... done (  0.0 sec)
Calculating Nuclear repulsion               ... done (  0.0 sec) ENN=    117.839317152143 Eh

Diagonalization of the overlap matrix:
Smallest eigenvalue                        ... 3.629e-03
Time for diagonalization                   ...    0.001 sec
Threshold for overlap eigenvalues          ... 1.000e-07
Number of eigenvalues below threshold      ... 0
Time for construction of square roots      ...    0.000 sec
Total time needed                          ...    0.002 sec

-------------------
DFT GRID GENERATION
-------------------

General Integration Accuracy     IntAcc      ... 4.388
Radial Grid Type                 RadialGrid  ... OptM3 with GC (2021)
Angular Grid (max. ang.)         AngularGrid ... 4 (Lebedev-302)
Angular grid pruning method      GridPruning ... 4 (adaptive)
Weight generation scheme         WeightScheme... mBecke (2022)
Basis function cutoff            BFCut       ... 1.0000e-11
Integration weight cutoff        WCut        ... 1.0000e-14
Partially contracted basis set               ... off
Rotationally invariant grid construction     ... off
Angular grids for H and He will be reduced by one unit

Total number of grid points                  ...    46977
Total number of batches                      ...      740
Average number of points per batch           ...       63
Average number of grid points per atom       ...     4271

--------------------
COSX GRID GENERATION
--------------------

GRIDX 1
-------
General Integration Accuracy     IntAcc      ... 3.816
Radial Grid Type                 RadialGrid  ... OptM3 with GC (2021)
Angular Grid (max. ang.)         AngularGrid ... 1 (Lebedev-50)
Angular grid pruning method      GridPruning ... 4 (adaptive)
Weight generation scheme         WeightScheme... mBecke (2022)
Basis function cutoff            BFCut       ... 1.0000e-11
Integration weight cutoff        WCut        ... 1.0000e-14
Partially contracted basis set               ... on
Rotationally invariant grid construction     ... off
Angular grids for H and He will be reduced by one unit

Total number of grid points                  ...     6081
Total number of batches                      ...       54
Average number of points per batch           ...      112
Average number of grid points per atom       ...      553
UseSFitting                                  ... on

GRIDX 2
-------
General Integration Accuracy     IntAcc      ... 4.020
Radial Grid Type                 RadialGrid  ... OptM3 with GC (2021)
Angular Grid (max. ang.)         AngularGrid ... 2 (Lebedev-110)
Angular grid pruning method      GridPruning ... 4 (adaptive)
Weight generation scheme         WeightScheme... mBecke (2022)
Basis function cutoff            BFCut       ... 1.0000e-11
Integration weight cutoff        WCut        ... 1.0000e-14
Partially contracted basis set               ... on
Rotationally invariant grid construction     ... off
Angular grids for H and He will be reduced by one unit

Total number of grid points                  ...    12814
Total number of batches                      ...      107
Average number of points per batch           ...      119
Average number of grid points per atom       ...     1165
UseSFitting                                  ... on

GRIDX 3
-------
General Integration Accuracy     IntAcc      ... 4.338
Radial Grid Type                 RadialGrid  ... OptM3 with GC (2021)
Angular Grid (max. ang.)         AngularGrid ... 3 (Lebedev-194)
Angular grid pruning method      GridPruning ... 4 (adaptive)
Weight generation scheme         WeightScheme... mBecke (2022)
Basis function cutoff            BFCut       ... 1.0000e-11
Integration weight cutoff        WCut        ... 1.0000e-14
Partially contracted basis set               ... on
Rotationally invariant grid construction     ... off
Angular grids for H and He will be reduced by one unit

Total number of grid points                  ...    28101
Total number of batches                      ...      227
Average number of points per batch           ...      123
Average number of grid points per atom       ...     2555
UseSFitting                                  ... on
Grids setup in   0.5 sec
Initializing property integral containers    ... done (  0.0 sec)

SHARK setup successfully completed in   0.6 seconds

Maximum memory used throughout the entire STARTUP-calculation: 13.7 MB


           ************************************************************
           *        Program running with 6 parallel MPI-processes     *
           *              working on a common directory               *
           ************************************************************
-------------------------------------------------------------------------------
                                 ORCA GUESS
                   Start orbitals & Density for SCF / CASSCF
-------------------------------------------------------------------------------

------------
SCF SETTINGS
------------
Hamiltonian:
 Density Functional     Method          .... DFT(GTOs)
 Exchange Functional    Exchange        .... B88
   X-Alpha parameter    XAlpha          ....  0.666667
   Becke's b parameter  XBeta           ....  0.004200
 Correlation Functional Correlation     .... LYP
 LDA part of GGA corr.  LDAOpt          .... VWN-5
 Gradients option       PostSCFGGA      .... off
 Hybrid DFT is turned on
   Fraction HF Exchange ScalHFX         ....  0.200000
   Scaling of DF-GGA-X  ScalDFX         ....  0.720000
   Scaling of DF-GGA-C  ScalDFC         ....  0.810000
   Scaling of DF-LDA-C  ScalLDAC        ....  1.000000
   Perturbative correction              ....  0.000000
   NL short-range parameter             ....  4.800000
 RI-approximation to the Coulomb term is turned on
   Number of AuxJ basis functions       .... 273
   RIJ-COSX (HFX calculated with COS-X)).... on


General Settings:
 Integral files         IntName         .... orca
 Hartree-Fock type      HFTyp           .... RHF
 Total Charge           Charge          ....    0
 Multiplicity           Mult            ....    1
 Number of Electrons    NEL             ....   32
 Basis Dimension        Dim             ....   91
 Nuclear Repulsion      ENuc            ....    117.8393171521 Eh

Convergence Acceleration:
 AO-DIIS                CNVDIIS         .... on
   Start iteration      DIISMaxIt       ....    12
   Startup error        DIISStart       ....  0.200000
   # of expansion vecs  DIISMaxEq       ....     5
   Bias factor          DIISBfac        ....   1.050
   Max. coefficient     DIISMaxC        ....  10.000
 MO-DIIS                CNVKDIIS        .... off
 Trust-Rad. Augm. Hess. CNVTRAH         .... auto
   Auto Start mean grad. ratio tolernc. ....  1.125000
   Auto Start start iteration           ....    50
   Auto Start num. interpolation iter.  ....    10
   Max. Number of Micro iterations      ....    24
   Max. Number of Macro iterations      .... Maxiter - #DIIS iter
   Number of Davidson start vectors     ....     2
   Converg. threshold    (grad. norm)   ....   1.000e-05
   Grad. Scal. Fac. for Micro threshold ....   0.100
   Minimum threshold for Micro iter.    ....   1.000e-02
   NR start threshold (gradient norm)   ....   1.000e-04
   Initial trust radius                 ....   0.400
   Minimum AH scaling param. (alpha)    ....   1.000
   Maximum AH scaling param. (alpha)    .... 1000.000
   Quad. conv. algorithm                .... NR
   White noise on init. David. guess    .... on
   Maximum white noise                  ....   0.010
   Pseudo random numbers                .... off
   Inactive MOs                         .... canonical
   Orbital update algorithm             .... Taylor
   Preconditioner                       .... Diag
   Full preconditioner red. dimension   ....   250
 SOSCF                 CNVSOSCF           .... on
   Start iteration     SOSCFMaxIt         ....   150
   Startup grad/error  SOSCFStart         ....  0.003300
   Hessian update      SOSCFHessUp        .... L-BFGS
   Autom. constraints  SOSCFAutoConstrain .... off
 Level Shifting         CNVShift        .... on
   Level shift para.    LevelShift      ....    0.2500
   Turn off err/grad.   ShiftErr        ....    0.0010
 Zerner damping         CNVZerner       .... off
 Static damping         CNVDamp         .... on
   Fraction old density DampFac         ....    0.7000
   Max. Damping (<1)    DampMax         ....    0.9800
   Min. Damping (>=0)   DampMin         ....    0.0000
   Turn off err/grad.   DampErr         ....    0.1000

SCF Procedure:
 Maximum # iterations   MaxIter         ....   125
 SCF integral mode      SCFMode         .... Direct
   Integral package                     .... SHARK and LIBINT hybrid scheme
 Reset frequency        DirectResetFreq ....    20
 Integral Threshold     Thresh          ....  2.500e-11 Eh
 Primitive CutOff       TCut            ....  2.500e-12 Eh

Convergence Tolerance:
 Convergence Check Mode ConvCheckMode   .... Total+1el-Energy
 Convergence forced     ConvForced      .... 0
 Energy Change          TolE            ....  1.000e-08 Eh
 1-El. energy change                    ....  1.000e-05 Eh
 Orbital Gradient       TolG            ....  1.000e-05
 Orbital Rotation angle TolX            ....  1.000e-05
 DIIS Error             TolErr          ....  5.000e-07

------------------------------
INITIAL GUESS: MODEL POTENTIAL
------------------------------
Loading Hartree-Fock densities                     ... done
Calculating cut-offs                               ... done
Initializing the effective Hamiltonian             ... done
Setting up the integral package (SHARK)            ... done
Starting the Coulomb interaction                   ... done (   0.0 sec)
Making the grid                                    ... done (   0.1 sec)
Mapping shells                                     ... done
Starting the XC term evaluation                    ... done (   0.0 sec)
  promolecular density results
     # of electrons  =     31.995812633
     EX              =    -24.029433191
     EC              =     -1.026422209
     EX+EC           =    -25.055855400
Transforming the Hamiltonian                       ... done (   0.0 sec)
Diagonalizing the Hamiltonian                      ... done (   0.0 sec)
Back transforming the eigenvectors                 ... done (   0.0 sec)
Now organizing SCF variables                       ... done
                      ------------------
                      INITIAL GUESS DONE (   0.1 sec)
                      ------------------
             **** ENERGY FILE WAS UPDATED (orca.en.tmp) ****
Finished Guess after   0.2 sec
Maximum memory used throughout the entire GUESS-calculation: 6.9 MB


           ************************************************************
           *        Program running with 6 parallel MPI-processes     *
           *              working on a common directory               *
           ************************************************************

-------------------------------------------------------------------------------------------
                                      ORCA LEAN-SCF
                              memory conserving SCF solver
-------------------------------------------------------------------------------------------

----------------------------------------D-I-I-S--------------------------------------------
Iteration    Energy (Eh)           Delta-E    RMSDP     MaxDP     DIISErr   Damp  Time(sec)
-------------------------------------------------------------------------------------------
               ***  Starting incremental Fock matrix formation  ***
    1    -172.8774407955042989     0.00e+00  1.21e-02  8.10e-02  2.04e-01  0.700   0.3
    2    -172.9456559667610804    -6.82e-02  8.55e-03  4.97e-02  9.12e-02  0.700   0.2
                               ***Turning on AO-DIIS***
    3    -172.9717631727763205    -2.61e-02  3.23e-03  1.63e-02  3.84e-02  0.700   0.2
    4    -172.9871663677968741    -1.54e-02  4.92e-03  2.34e-02  1.76e-02  0.000   0.2
    5    -173.0209878164923794    -3.38e-02  1.24e-03  6.66e-03  7.62e-03  0.000   0.2
                              *** Initializing SOSCF ***
---------------------------------------S-O-S-C-F--------------------------------------
Iteration    Energy (Eh)           Delta-E    RMSDP     MaxDP     MaxGrad    Time(sec)
--------------------------------------------------------------------------------------
    6    -173.0212566768099123    -2.69e-04  5.19e-04  2.72e-03  2.52e-03     0.3
               *** Restarting incremental Fock matrix formation ***
    7    -173.0212998337194108    -4.32e-05  3.54e-04  1.97e-03  3.81e-04     0.4
    8    -173.0213002610300919    -4.27e-07  1.12e-04  8.95e-04  5.14e-04     0.3
    9    -173.0213026451698397    -2.38e-06  1.15e-04  6.31e-04  2.11e-04     0.3
   10    -173.0213025813609420     6.38e-08  4.74e-05  2.44e-04  1.17e-04     0.3
   11    -173.0213029754455647    -3.94e-07  7.10e-06  4.21e-05  8.03e-06     0.3
   12    -173.0213029783818115    -2.94e-09  1.73e-06  1.44e-05  3.93e-06     0.3
                 **** Energy Check signals convergence ****

               *****************************************************
               *                     SUCCESS                       *
               *           SCF CONVERGED AFTER  12 CYCLES          *
               *****************************************************

Recomputing exchange energy using gridx3       ... done (    0.467 sec)
Old exchange energy                            :     -4.909811503 Eh
New exchange energy                            :     -4.909827331 Eh
Exchange energy change after final integration :     -0.000015829 Eh
Total energy after final integration           :   -173.021318807 Eh
             **** ENERGY FILE WAS UPDATED (orca.en.tmp) ****

----------------
TOTAL SCF ENERGY
----------------

Total Energy       :       -173.02131880673318 Eh           -4708.14944 eV

Components:
Nuclear Repulsion  :        117.83931715214318 Eh            3206.57084 eV
Electronic Energy  :       -290.86062013015965 Eh           -7914.71985 eV
One Electron Energy:       -465.27456216214415 Eh          -12660.76450 eV
Two Electron Energy:        174.41394203198453 Eh            4746.04465 eV

Virial components:
Potential Energy   :       -344.13470489572336 Eh           -9364.38140 eV
Kinetic Energy     :        171.11338608899018 Eh            4656.23195 eV
Virial Ratio       :          2.01115010789834

DFT components:
N(Alpha)           :       16.000006543440 electrons
N(Beta)            :       16.000006543440 electrons
N(Total)           :       32.000013086881 electrons
E(X)               :      -19.480856414799 Eh       
E(C)               :       -1.221108634310 Eh       
E(XC)              :      -20.701965049109 Eh       

---------------
SCF CONVERGENCE
---------------

  Last Energy change         ...    2.9362e-09  Tolerance :   1.0000e-08
  Last MAX-Density change    ...    1.4425e-05  Tolerance :   1.0000e-07
  Last RMS-Density change    ...    1.7331e-06  Tolerance :   5.0000e-09
  Last DIIS Error            ...    2.5234e-03  Tolerance :   5.0000e-07
  Last Orbital Gradient      ...    3.9253e-06  Tolerance :   1.0000e-05
  Last Orbital Rotation      ...    3.8174e-06  Tolerance :   1.0000e-05


----------------
ORBITAL ENERGIES
----------------

  NO   OCC          E(Eh)            E(eV) 
   0   2.0000     -14.309743      -389.3879 
   1   2.0000     -10.221590      -278.1436 
   2   2.0000     -10.203644      -277.6553 
   3   2.0000     -10.183863      -277.1170 
   4   2.0000      -0.904652       -24.6168 
   5   2.0000      -0.738663       -20.1000 
   6   2.0000      -0.662298       -18.0220 
   7   2.0000      -0.542669       -14.7668 
   8   2.0000      -0.476043       -12.9538 
   9   2.0000      -0.439357       -11.9555 
  10   2.0000      -0.432591       -11.7714 
  11   2.0000      -0.406423       -11.0593 
  12   2.0000      -0.382374       -10.4049 
  13   2.0000      -0.363533        -9.8922 
  14   2.0000      -0.284689        -7.7468 
  15   2.0000      -0.243714        -6.6318 
  16   0.0000       0.006523         0.1775 
  17   0.0000       0.076202         2.0736 
  18   0.0000       0.082105         2.2342 
  19   0.0000       0.105132         2.8608 
  20   0.0000       0.133763         3.6399 
  21   0.0000       0.143171         3.8959 
  22   0.0000       0.145010         3.9459 
  23   0.0000       0.153905         4.1880 
  24   0.0000       0.196801         5.3552 
  25   0.0000       0.251349         6.8395 
  26   0.0000       0.338033         9.1983 
*Only the first 10 virtual orbitals were printed.

                    ********************************
                    * MULLIKEN POPULATION ANALYSIS *
                    ********************************

-----------------------
MULLIKEN ATOMIC CHARGES
-----------------------
   0 C :    0.071149
   1 C :   -0.088799
   2 N :   -0.182411
   3 C :    0.108295
   4 H :   -0.016096
   5 H :    0.023857
   6 H :    0.023934
   7 H :    0.025032
   8 H :    0.023557
   9 H :    0.023551
  10 H :   -0.012070
Sum of atomic charges:    0.0000000

--------------------------------
MULLIKEN REDUCED ORBITAL CHARGES
--------------------------------
  0 C s       :     2.946215  s :     2.946215
      pz      :     1.005122  p :     2.955741
      px      :     0.958849
      py      :     0.991771
      dz2     :     0.007387  d :     0.026894
      dxz     :     0.004915
      dyz     :     0.002668
      dx2y2   :     0.004474
      dxy     :     0.007451

  1 C s       :     3.190685  s :     3.190685
      pz      :     0.960592  p :     2.840641
      px      :     0.965707
      py      :     0.914342
      dz2     :     0.016658  d :     0.057473
      dxz     :     0.016286
      dyz     :     0.003022
      dx2y2   :     0.010185
      dxy     :     0.011322

  2 N s       :     3.561918  s :     3.561918
      pz      :     1.493271  p :     3.592199
      px      :     0.990127
      py      :     1.108801
      dz2     :     0.004311  d :     0.028294
      dxz     :     0.011191
      dyz     :     0.003932
      dx2y2   :     0.003521
      dxy     :     0.005340

  3 C s       :     2.981578  s :     2.981578
      pz      :     0.951256  p :     2.867781
      px      :     0.886509
      py      :     1.030015
      dz2     :     0.012137  d :     0.042346
      dxz     :     0.009511
      dyz     :     0.002713
      dx2y2   :     0.007473
      dxy     :     0.010513

  4 H s       :     0.996443  s :     0.996443
      pz      :     0.014180  p :     0.019653
      px      :     0.002188
      py      :     0.003284

  5 H s       :     0.952554  s :     0.952554
      pz      :     0.005118  p :     0.023589
      px      :     0.006881
      py      :     0.011590

  6 H s       :     0.952485  s :     0.952485
      pz      :     0.005934  p :     0.023581
      px      :     0.007271
      py      :     0.010377

  7 H s       :     0.952149  s :     0.952149
      pz      :     0.014101  p :     0.022819
      px      :     0.003990
      py      :     0.004728

  8 H s       :     0.954368  s :     0.954368
      pz      :     0.005634  p :     0.022075
      px      :     0.006000
      py      :     0.010441

  9 H s       :     0.954371  s :     0.954371
      pz      :     0.004774  p :     0.022078
      px      :     0.005588
      py      :     0.011717

 10 H s       :     0.990347  s :     0.990347
      pz      :     0.013823  p :     0.021723
      px      :     0.003033
      py      :     0.004867



                     *******************************
                     * LOEWDIN POPULATION ANALYSIS *
                     *******************************

----------------------
LOEWDIN ATOMIC CHARGES
----------------------
   0 C :   -0.066947
   1 C :    0.021561
   2 N :   -0.105591
   3 C :    0.003278
   4 H :   -0.009901
   5 H :    0.035644
   6 H :    0.035650
   7 H :    0.034152
   8 H :    0.026080
   9 H :    0.026119
  10 H :   -0.000044

-------------------------------
LOEWDIN REDUCED ORBITAL CHARGES
-------------------------------
  0 C s       :     2.844924  s :     2.844924
      pz      :     1.065330  p :     3.151530
      px      :     1.030614
      py      :     1.055586
      dz2     :     0.019652  d :     0.070493
      dxz     :     0.012925
      dyz     :     0.006087
      dx2y2   :     0.012403
      dxy     :     0.019425

  1 C s       :     2.886021  s :     2.886021
      pz      :     1.032001  p :     2.954577
      px      :     1.032516
      py      :     0.890060
      dz2     :     0.043087  d :     0.137841
      dxz     :     0.043609
      dyz     :     0.005604
      dx2y2   :     0.025276
      dxy     :     0.020265

  2 N s       :     3.239417  s :     3.239417
      pz      :     1.573975  p :     3.808658
      px      :     1.132130
      py      :     1.102553
      dz2     :     0.007262  d :     0.057515
      dxz     :     0.025433
      dyz     :     0.004428
      dx2y2   :     0.010451
      dxy     :     0.009942

  3 C s       :     2.845634  s :     2.845634
      pz      :     1.029370  p :     3.050587
      px      :     0.947065
      py      :     1.074152
      dz2     :     0.030607  d :     0.100500
      dxz     :     0.022222
      dyz     :     0.005825
      dx2y2   :     0.016287
      dxy     :     0.025560

  4 H s       :     0.944246  s :     0.944246
      pz      :     0.044619  p :     0.065655
      px      :     0.009458
      py      :     0.011577

  5 H s       :     0.900247  s :     0.900247
      pz      :     0.012980  p :     0.064109
      px      :     0.019476
      py      :     0.031652

  6 H s       :     0.900250  s :     0.900250
      pz      :     0.015772  p :     0.064100
      px      :     0.020641
      py      :     0.027687

  7 H s       :     0.900903  s :     0.900903
      pz      :     0.041632  p :     0.064945
      px      :     0.011440
      py      :     0.011872

  8 H s       :     0.911667  s :     0.911667
      pz      :     0.014753  p :     0.062253
      px      :     0.019276
      py      :     0.028224

  9 H s       :     0.911634  s :     0.911634
      pz      :     0.011887  p :     0.062248
      px      :     0.017982
      py      :     0.032378

 10 H s       :     0.936620  s :     0.936620
      pz      :     0.042019  p :     0.063425
      px      :     0.009478
      py      :     0.011928



                      *****************************
                      * MAYER POPULATION ANALYSIS *
                      *****************************

  NA   - Mulliken gross atomic population
  ZA   - Total nuclear charge
  QA   - Mulliken gross atomic charge
  VA   - Mayer's total valence
  BVA  - Mayer's bonded valence
  FA   - Mayer's free valence

  ATOM       NA         ZA         QA         VA         BVA        FA
  0 C      5.9289     6.0000     0.0711     3.8668     3.8668    -0.0000
  1 C      6.0888     6.0000    -0.0888     4.1088     4.1088    -0.0000
  2 N      7.1824     7.0000    -0.1824     3.1252     3.1252     0.0000
  3 C      5.8917     6.0000     0.1083     3.9454     3.9454     0.0000
  4 H      1.0161     1.0000    -0.0161     0.9907     0.9907     0.0000
  5 H      0.9761     1.0000     0.0239     0.9888     0.9888     0.0000
  6 H      0.9761     1.0000     0.0239     0.9887     0.9887     0.0000
  7 H      0.9750     1.0000     0.0250     1.0199     1.0199    -0.0000
  8 H      0.9764     1.0000     0.0236     0.9885     0.9885     0.0000
  9 H      0.9764     1.0000     0.0236     0.9885     0.9885     0.0000
 10 H      1.0121     1.0000    -0.0121     0.9930     0.9930     0.0000

  Mayer bond orders larger than 0.100000
B(  0-C ,  1-C ) :   1.0505 B(  0-C ,  5-H ) :   0.9523 B(  0-C ,  6-H ) :   0.9523 
B(  0-C ,  7-H ) :   0.9607 B(  1-C ,  2-N ) :   2.0052 B(  1-C ,  4-H ) :   0.9312 
B(  2-N ,  3-C ) :   1.0294 B(  3-C ,  8-H ) :   0.9655 B(  3-C ,  9-H ) :   0.9655 
B(  3-C , 10-H ) :   0.9464 

-------
TIMINGS
-------

Total SCF time: 0 days 0 hours 0 min 4 sec 

Total time                  ....       4.252 sec
Sum of individual times     ....       3.947 sec  ( 92.8%)

SCF preparation             ....       0.149 sec  (  3.5%)
Fock matrix formation       ....       3.624 sec  ( 85.2%)
  Startup                   ....       0.004 sec  (  0.1% of F)
  Split-RI-J                ....       0.263 sec  (  7.3% of F)
  Chain of spheres X        ....       2.655 sec  ( 73.3% of F)
  XC integration            ....       0.858 sec  ( 23.7% of F)
    Basis function eval.    ....       0.252 sec  ( 29.4% of XC)
    Density eval.           ....       0.123 sec  ( 14.3% of XC)
    XC-Functional eval.     ....       0.063 sec  (  7.4% of XC)
    XC-Potential eval.      ....       0.141 sec  ( 16.5% of XC)
Diagonalization             ....       0.000 sec  (  0.0%)
Density matrix formation    ....       0.024 sec  (  0.6%)
Total Energy calculation    ....       0.013 sec  (  0.3%)
Population analysis         ....       0.015 sec  (  0.4%)
Orbital Transformation      ....       0.012 sec  (  0.3%)
Orbital Orthonormalization  ....       0.000 sec  (  0.0%)
DIIS solution               ....       0.063 sec  (  1.5%)
SOSCF solution              ....       0.046 sec  (  1.1%)
Finished LeanSCF after   4.3 sec

Maximum memory used throughout the entire LEANSCF-calculation: 8.2 MB


-------------------------------------------------------------------------------
                          DFT DISPERSION CORRECTION                            
                                                                               
                              DFTD3 V3.1  Rev 1                                
                          USING Becke-Johnson damping                          
-------------------------------------------------------------------------------
The B3LYP functional is recognized
Active option DFTDOPT                   ...         4   

molecular C6(AA) [au] = 916.880742 


            DFT-D V3
 parameters
 s6 scaling factor         :     1.0000 
 a1 scaling factor         :     0.3981 
 s8 scaling factor         :     1.9889 
 a2 scaling factor         :     4.4211 
 ad hoc parameters k1-k3   :    16.0000     1.3333    -4.0000 

 Edisp/kcal,au: -6.684203635985  -0.010651955388 
 E6   /kcal   :  -3.315326360 
 E8   /kcal   :  -3.368877276 
 % E8         :  50.400578124 

-------------------------   ----------------
Dispersion correction           -0.010651955
-------------------------   ----------------


-------------------------   --------------------
FINAL SINGLE POINT ENERGY      -173.031970762121
-------------------------   --------------------



           ************************************************************
           *        Program running with 6 parallel MPI-processes     *
           *              working on a common directory               *
           ************************************************************
------------------------------------------------------------------------------
                         ORCA SCF GRADIENT CALCULATION
------------------------------------------------------------------------------

Nuc. rep. gradient        (SHARK) ... done (  0.0 sec)
HCore & Overlap gradient  (SHARK) ... done (  0.0 sec)
Split-RIJ-J gradient      (SHARK) ... done (  0.1 sec)
done (  1.9 sec)
XC gradient                       ... done (  0.4 sec)
Dispersion correction             ... done (  0.1 sec)

-------------------
DISPERSION GRADIENT
-------------------

   1   C   :   -0.000278613   -0.000000007   -0.000063042
   2   C   :   -0.000164975   -0.000010344    0.000052776
   3   N   :    0.000233345    0.000011387   -0.000049145
   4   C   :    0.000247291    0.000003439    0.000025951
   5   H   :   -0.000052195   -0.000016180    0.000130373
   6   H   :   -0.000162534   -0.000055527   -0.000019689
   7   H   :   -0.000165229    0.000050222   -0.000007558
   8   H   :   -0.000137211    0.000008405   -0.000104494
   9   H   :    0.000174021   -0.000047365   -0.000024121
  10   H   :    0.000171246    0.000060454   -0.000011977
  11   H   :    0.000134854   -0.000004485    0.000070927

Difference to translation invariance:
           :   -0.0000000000   -0.0000000000   -0.0000000000

Difference to rotation invariance:
           :    0.0000000000   -0.0000000000    0.0000000000

Norm of the Dispersion gradient    ...    0.0006554215
RMS gradient                       ...    0.0001140942
MAX gradient                       ...    0.0002786127

------------------
CARTESIAN GRADIENT
------------------

   1   C   :    0.000026864    0.000063115    0.000017726
   2   C   :    0.000081800    0.000018771   -0.000115653
   3   N   :   -0.000034308   -0.000062107    0.000061931
   4   C   :   -0.000107852   -0.000037436   -0.000027001
   5   H   :    0.000015827   -0.000019195    0.000056609
   6   H   :   -0.000007627    0.000019518    0.000009878
   7   H   :   -0.000031291   -0.000022727    0.000051200
   8   H   :    0.000061621   -0.000026499   -0.000043064
   9   H   :    0.000021819    0.000022583   -0.000042192
  10   H   :    0.000003073    0.000019989   -0.000038961
  11   H   :   -0.000029925    0.000023987    0.000069528

Difference to translation invariance:
           :    0.0000000000    0.0000000000   -0.0000000000

Difference to rotation invariance:
           :   -0.0000395381    0.0000925968    0.0000231881

Norm of the Cartesian gradient     ...    0.0002718462
RMS gradient                       ...    0.0000473223
MAX gradient                       ...    0.0001156534

-------
TIMINGS
-------

Total SCF gradient time     ....        2.542 sec

Densities                   ....       0.000 sec  (  0.0%)
One electron gradient       ....       0.019 sec  (  0.8%)
RI-J Coulomb gradient       ....       0.150 sec  (  5.9%)
COSX gradient               ....       1.893 sec  ( 74.5%)
XC gradient                 ....       0.423 sec  ( 16.7%)

Maximum memory used throughout the entire SCFGRAD-calculation: 26.8 MB


           ************************************************************
           *        Program running with 6 parallel MPI-processes     *
           *              working on a common directory               *
           ************************************************************

------------------------------------------------------------------------------
                              ORCA PROPERTY CALCULATIONS
------------------------------------------------------------------------------

GBWName                                 ... orca.gbw
Number of atoms                         ...     11
Number of basis functions               ...     91
Max core memory                         ...   4096 MB

Electric properties:
Dipole moment                           ... YES
Quadrupole moment                       ...  NO
Static polarizability (Dipole/Dipole)   ...  NO
Static polarizability (Dipole/Quad.)    ...  NO
Static polarizability (Quad./Quad.)     ...  NO
Static polarizability (Velocity)        ...  NO
Static hyperpolarizability              ...  NO

Atomic electric properties:
Dipole moment                           ...  NO
Quadrupole moment                       ...  NO
Static polarizability                   ...  NO

Choice of electric origin               ... Center of mass
Position of electric origin             ...    -1.158190    -0.047707     2.869088

General magnetic properties:
Magnetizability                         ...  NO

EPR properties:
g-Tensor (aka g-matrix)                 ...  NO
Zero-Field splitting spin-orbit         ...  NO
Zero-field splitting spin-spin          ...  NO
Hyperfine couplings                     ...  NO (   0 nuclei)
Quadrupole couplings                    ...  NO (   0 nuclei)
Contact density                         ...  NO (   0 nuclei)

NMR properties:
Chemical shifts                         ...  NO (   0 nuclei)
Spin-rotation constants                 ...  NO (   0 nuclei)
Spin-spin couplings                     ...  NO (   0 nuclei,    0 pairs)

Choice of magnetic origin               ... GIAO
Position of magnetic origin             ...     0.000000     0.000000     0.000000

Properties with geometric perturbations:
SCF Hessian                             ...  NO
IR spectrum                             ...  NO
VCD spectrum                            ...  NO
X-ray spectroscopy properties:
SCF XES/XAS/RIXS spectra                ...  NO

SCF SOC stabilization energy            ...  NO
Diagonal Born-Oppenheimer correction    ...  NO

-------------
DIPOLE MOMENT
-------------

Method             : SCF
Type of density    : Electron Density
Multiplicity       :   1
Irrep              :   0
Energy             :  -173.0213188067331771 Eh
Basis              : AO
                                X                 Y                 Z
Electronic contribution:      0.458266187       0.107885717      -0.878912704
Nuclear contribution   :     -0.613314713      -0.166783829       1.369598002
                        -----------------------------------------
Total Dipole Moment    :     -0.155048526      -0.058898112       0.490685298
                        -----------------------------------------
Magnitude (a.u.)       :      0.517958584
Magnitude (Debye)      :      1.316546092



--------------------
Rotational spectrum 
--------------------
 
Rotational constants in cm-1:             1.289441             0.135255             0.128286 
Rotational constants in MHz :         38656.479204          4054.836455          3845.919200 

Dipole components along the rotational axes: 
x,y,z [a.u.] :    -0.094686     0.509230     0.000354 
x,y,z [Debye]:    -0.240671     1.294361     0.000900 

 

Dipole moment calculation done in   0.0 sec 

Maximum memory used throughout the entire PROP-calculation: 4.9 MB

--------------------------------
SUGGESTED CITATIONS FOR THIS RUN
--------------------------------

Below you find a list of papers that are relevant to this ORCA run
We neither can nor want to force you to cite these papers, but we appreciate if you do
You receive ORCA, which is the product of decades of hard work by many enthusiastic individuals, for free
The only thing we kindly ask in return is that you cite our papers,
We deeply appreciate it, if you show your appreciation for ORCA by not just citing the generic ORCA reference.

Please note that relegating all ORCA citations to the supporting information does *not* help us.
SI sections are not indexed - citations you put there will not count into any citation statistics
But we need these citations in order to attract the funding resources that allow us to do what we are doing

Therefore, if you are a happy ORCA user, please consider citing a few of the papers listed below in the main body of your paper

In addition to the list printed below, the program has created the file orca.bibtex that contains the list in bibtex format
You can import this file easily into all common literature databanks and citation aid programs


List of essential papers. We consider these as the minimum necessary citations

  1. Neese, F.
     Software update: the ORCA program system, version 6.0
     WIRES Comput. Molec. Sci. 2025 15(1), e70019
     doi.org/10.1002/wcms.7019

List of papers to cite with high priority. The work reported in these papers was absolutely
necessary for this run to complete.
Our perspective: the developers of density functionals and basis sets usually get cited in chemistry papers
Good! But without the algorithms to do something with them, the functionals or basis sets would not do anything.
Hence, in our opinion, the algorithm design and method developments papers are equally worthy of getting cited

  1. Neese, F.
     An improvement of the resolution of the identity approximation for the formation of the Coulomb matrix
     J. Comp. Chem. 2003 24(14), 1740-1747
     doi.org/10.1002/jcc.10318
  2. Neese, F.; Wennmohs, F.; Hansen, A.; Becker, U.
     Efficient, approximate and parallel Hartree-Fock and hybrid DFT calculations. A 'chain-of-spheres' algorithm for the Hartree-Fock exchange
     Chem. Phys. 2009 356(1-3), 98-109
     doi.org/10.1016/j.chemphys.2008.10.036
  3. Grimme, S.; Antony, J.; Ehrlich, S.; Krieg, H.
     A consistent and accurate ab initio parametrization of density functional dispersion correction (DFT-D) for the 94 elements H-Pu
     J. Chem. Phys. 2010 132 , 154104
     doi.org/10.1063/1.3382344
  4. Grimme, S.; Ehrlich, S.; Goerigk, L.
     Effect of the damping function in dispersion corrected density functional theory
     J. Comput. Chem. 2011 32(7), 1456-1465
     doi.org/10.1002/jcc.21759
  5. Helmich-Paris, B.; de Souza, B.; Neese, F.; Izsák, R.
     An improved chain of spheres for exchange algorithm
     J. Chem. Phys. 2021 155(10), 104109
     doi.org/10.1063/5.0058766
  6. Neese, F.
     The SHARK Integral Generation and Digestion System
     J. Comp. Chem. 2022 44(3), 381
     doi.org/10.1002/jcc.26942

List of suggested additional citations. These are papers that are important in the 'surrounding' of 
of this run, or papers that preceded the highly important papers. If you like your results we are grateful for a citation.

  1. Izsak, R.; Neese, F.
     An overlap fitted chain of spheres exchange method
     J. Chem. Phys. 2011 135 , 144105
     doi.org/10.1063/1.3646921
  2. Izsak, R.; Hansen, A.; Neese, F.
     The resolution of identity and chain of spheres approximations for the LPNO-CCSD singles Fock term
     Molec. Phys. 2012 110 , 2413-2417
     doi.org/10.1080/00268976.2012.687466
  3. Neese, F.
     The ORCA program system
     WIRES Comput. Molec. Sci. 2012 2(1), 73-78
     doi.org/10.1002/wcms.81
  4. Izsak, R.; Neese, F.; Klopper, W.
     Robust fitting techniques in the chain of spheres approximation to the Fock exchange: The role of the complementary space
     J. Chem. Phys. 2013 139 , 
     doi.org/10.1063/1.4819264
  5. Neese, F.
     Software update: the ORCA program system, version 4.0
     WIRES Comput. Molec. Sci. 2018 8(1), 1-6
     doi.org/10.1002/wcms.1327
  6. Neese, F.; Wennmohs, F.; Becker, U.; Riplinger, C.
     The ORCA quantum chemistry program package
     J. Chem. Phys. 2020 152(22), 224108
     doi.org/10.1063/5.0004608
  7. Neese, F.
     Software update: The ORCA program system—Version 5.0
     WIRES Comput. Molec. Sci. 2022 12(1), e1606
     doi.org/10.1002/wcms.1606

List of optional additional citations

  1. Neese, F.
     Approximate second-order SCF convergence for spin unrestricted wavefunctions
     Chem. Phys. Lett. 2000 325(1-3), 93-98
     doi.org/10.1016/s0009-2614(00)00662-x

Timings for individual modules:

Sum of individual times          ...        9.763 sec (=   0.163 min)
Startup calculation              ...        1.035 sec (=   0.017 min)  10.6 %
SCF iterations                   ...        5.244 sec (=   0.087 min)  53.7 %
Property calculations            ...        0.501 sec (=   0.008 min)   5.1 %
SCF Gradient evaluation          ...        2.983 sec (=   0.050 min)  30.6 %
                             ****ORCA TERMINATED NORMALLY****
TOTAL RUN TIME: 0 days 0 hours 0 minutes 10 seconds 385 msec
