
                                 *****************
                                 * O   R   C   A *
                                 *****************

                                            #,                                       
                                            ###                                      
                                            ####                                     
                                            #####                                    
                                            ######                                   
                                           ########,                                 
                                     ,,################,,,,,                         
                               ,,#################################,,                 
                          ,,##########################################,,             
                       ,#########################################, ''#####,          
                    ,#############################################,,   '####,        
                  ,##################################################,,,,####,       
                ,###########''''           ''''###############################       
              ,#####''   ,,,,##########,,,,          '''####'''          '####       
            ,##' ,,,,###########################,,,                        '##       
           ' ,,###''''                  '''############,,,                           
         ,,##''                                '''############,,,,        ,,,,,,###''
      ,#''                                            '''#######################'''  
     '                                                          ''''####''''         
             ,#######,   #######,   ,#######,      ##                                
            ,#'     '#,  ##    ##  ,#'     '#,    #''#        ,####,    ,#,          
            ##       ##  ##   ,#'  ##            #'  '#       #'       ,# #          
            ##       ##  #######   ##           ,######,      #####,      #          
            '#,     ,#'  ##    ##  '#,     ,#' ,#      #,     #,   #      #          
             '#######'   ##     ##  '#######'  #'      '#     '####' #    #          



                #########################################################
                #                        -***-                          #
                #          Department of theory and spectroscopy        #
                #                                                       #
                #                      Frank Neese                      #
                #                                                       #
                #     Directorship, Architecture, Infrastructure        #
                #                    SHARK, DRIVERS                     #
                #        Core code/Algorithms in most modules           #
                #                                                       #
                #        Max Planck Institute fuer Kohlenforschung      #
                #                Kaiser Wilhelm Platz 1                 #
                #                 D-45470 Muelheim/Ruhr                 #
                #                      Germany                          #
                #                                                       #
                #                  All rights reserved                  #
                #                        -***-                          #
                #########################################################


                         Program Version 6.1.0  -  RELEASE   -
                                (GIT: $679e74b$)
                          ($2025-06-10 18:02:51 +0200$)


 With contributions from (in alphabetic order):
[Max-Planck-Institut fuer Kohlenforschung]                               
  Daniel Aravena         : Magnetic Suceptibility                        
  Michael Atanasov       : Ab Initio Ligand Field Theory (pilot matlab implementation)
  Alexander A. Auer      : GIAO ZORA, VPT2 properties, NMR spectrum      
  Ute Becker             : All parallelization in ORCA, NUMFREQ, NUMCALC 
  Giovanni Bistoni       : ED, misc. LED, open-shell LED, HFLD           
  Dmytro Bykov           : pre 5.0 version of the SCF Hessian            
  Marcos Casanova-Páez   : Triplet and SCS-CIS(D). UHF-(DLPNO)-IP/EA/STEOM-CCSD. UHF-CVS-IP/STEOM-CCSD   
  Vijay G. Chilkuri      : MRCI spin determinant printing, contributions to CSF-ICE 
  Pauline Colinet        : FMM embedding                                 
  Dipayan Datta          : RHF DLPNO-CCSD density                        
  Achintya Kumar Dutta   : EOM-CC, STEOM-CC                              
  Nicolas Foglia         : Exact transition moments, OPA infrastructure, MCD improvements    
  Dmitry Ganyushin       : Spin-Orbit,Spin-Spin,Magnetic field MRCI      
  Miquel Garcia-Rates    : C-PCM and meta-GGA Hessian, CCSD/C-PCM, Gaussian charge scheme 
  Tiago L. C. Gouveia    : GS-ROHF, GS-ROCIS                             
  Yang Guo               : DLPNO-NEVPT2, F12-NEVPT2, CIM, IAO-localization        
  Andreas Hansen         : Spin unrestricted coupled pair/coupled cluster methods 
  Ingolf Harden          : AUTO-CI MPn and infrastructure                
  Benjamin Helmich-Paris : MC-RPA, TRAH-(SCF,CASSCF), AVAS, COSX integrals, SCF dyn. polar., MC-PDFT, srDFT 
  Lee Huntington         : MR-EOM, pCC                                   
  Robert Izsak           : Overlap fitted RIJCOSX, COSX-SCS-MP3, EOM     
  Riya Kayal             : Wick's Theorem for AUTO-CI, AUTO-CI UHF-CCSDT 
  Emily Kempfer          : AUTO-CI RHF CISDT and CCSDT, approximate NEVPT4
  Christian Kollmar      : KDIIS, OOCD, Brueckner-CCSD(T), CCSD density, CASPT2, CASPT2-K, improved NEVPT2 
  Axel Koslowski         : Symmetry handling                             
  Simone Kossmann        : meta-GGA functionals, TD-DFT gradient, OOMP2, (MP2 Hessian; deprecated post 5.0) 
  Lucas Lang             : DCDCAS, Hyperfine gauge corrections, ICE-SOC+SSC
  Marvin Lechner         : AUTO-CI (C++ implementation), FIC-MRCC        
  Spencer Leger          : CASSCF response                               
  Dagmar Lenk            : GEPOL surface, SMD, ORCA-2-JSON               
  Dimitrios Liakos       : Extrapolation schemes; Compound Job, Property file
  Dimitrios Manganas     : Further ROCIS development; embedding schemes. LFT, Crystal Embedding 
  Dimitrios Pantazis     : SARC Basis sets                               
  Anastasios Papadopoulos: AUTO-CI, single reference methods and gradients 
  Taras Petrenko         : pre 6.0 DFT Hessian and TD-DFT gradient,  ECA, NRVS 
  Petra Pikulova         : Analytic Raman intensities                    
  Peter Pinski           : DLPNO-MP2, DLPNO-MP2 Gradient                 
  Shashank Vittal Rao    : ES-AILFT, MagRelax                            
  Christoph Reimann      : Effective Core Potentials                     
  Marius Retegan         : Local ZFS, SOC                                
  Christoph Riplinger    : Optimizer, TS searches, QM/MM, DLPNO-CCSD(T), (RO)-DLPNO pert. Triples 
  Michael Roemelt        : Original ROCIS implementation, recursive CI coupling coefficients
  Masaaki Saitow         : Open-shell DLPNO-CCSD energy and density      
  Barbara Sandhoefer     : DKH picture change effects                    
  Yorick L. A. Schmerwitz: GMF and freeze-and-release deltaSCF, NEB S-IDPP initial path                    
  Kantharuban Sivalingam : CASSCF convergence/infrastructure, NEVPT2, NEVPT3, NEVPT4(SD), FIC-MRCI and CEPA variants
  Bernardo de Souza      : ESD, SOC TD-DFT                               
  Georgi L. Stoychev     : AutoAux, RI-MP2 NMR, DLPNO-MP2 response, X2C  
  Van Anh Tran           : RI-MP2 g-tensors                              
  Willem Van den Heuvel  : Paramagnetic NMR                              
  Zikuan Wang            : NOTCH, Electric field optimization            
  Frank Wennmohs         : Technical directorship and infrastructure     
  Hang Xu                : AUTO-CI-Response properties                   
                                                                         
[FACCTs GmbH]                                                            
  Markus Bursch, Nicolas Foglia, Miquel Garcia-Rates, Ingolf Harden, Hagen Neugebauer, Anastasios Papadopoulos, 
  Christoph Riplinger, Bernardo de Souza, Georgi L. Stoychev                                                    
                                                                 
  APM, various basis sets, CI-OPT, improved COSX, DLPNO-Multilevel,           
  DOCKER, DRACO, updates on ESD, Fragmentator, GOAT, IRC, LR-CPCM, L-BFGS, MBIS, meta-GGA TD-DFT gradient, ML-optimized integration grids, 
  MM, NACMEs, nearIR, NEB, NEB-TS, NL-DFT gradient (VV10), 2- and 3-layer-ONIOM, interface openCOSMO-RS, QMMM,   
  Crystal-QMMM, RESP, rigid body optimization, SF, symmetry and pop. for TD-DFT, various functionals, SOLVATOR                                   
                                                                         
[Other institutions]                                                     
  V. Asgeirsson          : NEB                                           
  Christoph Bannwarth    : sTDA-DFT, sTD-DFT, PBEh-3c, B97-3c, D3        
  Giovanni Bistoni       : ETS/NOCV, ADLD/ADEX, COVALED                  
  Martin Brehm           : Molecular dynamics                            
  Ronald Cardenas        : ETS/NOCV                                      
  Martina Colucci        : COVALED                                       
  Sebastian Ehlert       : rSCAN, r2SCAN, r2SCAN-3c, D4, dhf basis sets  
  Marvin Friede          : D4 for Fr, Ra, Ac-Lr                          
  Lars Goerigk           : TD-DFT with DH, B97 family of functionals     
  Stefan Grimme          : VdW corrections, initial TS optimization, DFT functionals, gCP, sTDA/sTD-DF 
  Waldemar Hujo          : DFT-NL                                        
  H. Jonsson             : NEB                                           
  Holger Kruse           : gCP                                           
  Marcel Mueller         : wB97X-3c, vDZP basis set                      
  Hagen Neugebauer       : wr2SCAN, Native XTB                           
  Gianluca Regni         : ADLD/ADEX                                     
  Tobias Risthaus        : pre 6.0 range-separated hybrid DFT and stability analysis
  Lukas Wittmann         : regularized MP2, r2SCAN double-hybrids, wr2SCAN        
                                                                         
We gratefully acknowledge several colleagues who have allowed us to      
interface, adapt or use parts of their codes:                            
  Ed Valeev, F. Pavosevic, A. Kumar             : LibInt (2-el integral package), F12 methods 
  Garnet Chan, S. Sharma, J. Yang, R. Olivares  : DMRG                   
  Ulf Ekstrom                                   : XCFun DFT Library      
  Mihaly Kallay                                 : mrcc  (arbitrary order and MRCC methods)
  Frank Weinhold                                : gennbo (NPA and NBO analysis)           
  Simon Mueller                                 : openCOSMO-RS                            
  Christopher J. Cramer and Donald G. Truhlar   : smd solvation model                     
  S Lehtola, MJT Oliveira, MAL Marques          : LibXC Library                           
  Liviu Ungur et al                             : ANISO software                          


 Your calculation uses the libint2 library for the computation of 2-el integrals
 For citations please refer to: http://libint.valeyev.net

 Your ORCA version has been built with support for libXC version: 7.0.0
 For citations please refer to: https://libxc.gitlab.io

 This ORCA versions uses:
   CBLAS   interface :  Fast vector & matrix operations
   LAPACKE interface :  Fast linear algebra routines
   SCALAPACK package :  Parallel linear algebra routines
   Shared memory     :  Shared parallel matrices
   BLAS/LAPACK       :  OpenBLAS 0.3.29  USE64BITINT DYNAMIC_ARCH NO_AFFINITY Zen SINGLE_THREADED
        Core in use  :  Zen
   Copyright (c) 2011-2014, The OpenBLAS Project


  ***********************************
  * Starting time: Wed Sep 10 13:34:26 2025
  * Host name:     wyk-Server
  * Process ID:    2282859
  * Working dir.:  /home/wyk/Documents/code/openQDC/MGMR/singlepointcalc/35/prod
  ***********************************

Your calculation utilizes the atom-pairwise dispersion correction
with the Becke-Johnson damping scheme (D3BJ)


Warning: RI is on but no J-basis has been assigned. Assigning Def2/J (nothing to worry about!)
================================================================================

----- Orbital basis set information -----
Your calculation utilizes the basis: def2-SVP
   F. Weigend and R. Ahlrichs, Phys. Chem. Chem. Phys. 7, 3297 (2005).

----- AuxJ basis set information -----
Your calculation utilizes the auxiliary basis: def2/J
   H-Rn: F. Weigend, Phys. Chem. Chem. Phys. 8, 1057 (2006).
   Fr-Lr: K. Eichkorn, F. Weigend, O. Treutler, R. Ahlrichs; Theor. Chem. Acc. 97, 119 (1997).

================================================================================
                                        WARNINGS
                       Please study these warnings very carefully!
================================================================================


================================================================================
                                       INPUT FILE
================================================================================
NAME = orca.inp
|  1> ! B3LYP def2-SVP d3 EnGrad 
|  2> %pal nprocs 6 end 
|  3> *xyz 0 1 
|  4> C   1.1529515241001 -0.22368901581764 0.07399711570983
|  5> O   -0.03942892057804 0.52099064246944 0.15673553772041
|  6> N   -1.14815470313213 -0.32743670948487 -0.14422759107374
|  7> H   -1.77855594721834 -0.20745926262402 0.65475955088179
|  8> H   1.96791451192902 0.47795380534719 0.31217062791291
|  9> H   1.316083571291 -0.63659306878499 -0.9396207299746
| 10> H   1.17200062842823 -1.06112193661049 0.79682602129932
| 11> H   -1.61992866481984 0.1417245455054 -0.92411453247589
| 12> *
| 13> 
| 14>                          ****END OF INPUT****
================================================================================

                     *******************************
                     * Energy+Gradient Calculation *
                     *******************************

---------------------------------
CARTESIAN COORDINATES (ANGSTROEM)
---------------------------------
  C      1.152952   -0.223689    0.073997
  O     -0.039429    0.520991    0.156736
  N     -1.148155   -0.327437   -0.144228
  H     -1.778556   -0.207459    0.654760
  H      1.967915    0.477954    0.312171
  H      1.316084   -0.636593   -0.939621
  H      1.172001   -1.061122    0.796826
  H     -1.619929    0.141725   -0.924115

----------------------------
CARTESIAN COORDINATES (A.U.)
----------------------------
  NO LB      ZA    FRAG     MASS         X           Y           Z
   0 C     6.0000    0    12.011    2.178763   -0.422711    0.139834
   1 O     8.0000    0    15.999   -0.074510    0.984530    0.296187
   2 N     7.0000    0    14.007   -2.169698   -0.618766   -0.272551
   3 H     1.0000    0     1.008   -3.360984   -0.392041    1.237316
   4 H     1.0000    0     1.008    3.718819    0.903202    0.589917
   5 H     1.0000    0     1.008    2.487038   -1.202987   -1.775626
   6 H     1.0000    0     1.008    2.214760   -2.005230    1.505783
   7 H     1.0000    0     1.008   -3.061222    0.267821   -1.746323

--------------------------------
INTERNAL COORDINATES (ANGSTROEM)
--------------------------------
 C      0   0   0     0.000000000000     0.00000000     0.00000000
 O      1   0   0     1.408248758137     0.00000000     0.00000000
 N      2   1   0     1.428173882039   109.31740601     0.00000000
 H      3   2   1     1.024783279192   104.10552936   126.77678470
 H      1   2   3     1.101450835007   106.07667536   179.88575823
 H      1   2   3     1.106581654858   112.08316332    60.95026976
 H      1   2   3     1.106407877755   112.11322601   298.94519635
 H      3   2   1     1.025137354446   104.22372405   236.44014959

---------------------------
INTERNAL COORDINATES (A.U.)
---------------------------
 C      0   0   0     0.000000000000     0.00000000     0.00000000
 O      1   0   0     2.661204481314     0.00000000     0.00000000
 N      2   1   0     2.698857508673   109.31740601     0.00000000
 H      3   2   1     1.936559744294   104.10552936   126.77678470
 H      1   2   3     2.081440428143   106.07667536   179.88575823
 H      1   2   3     2.091136272502   112.08316332    60.95026976
 H      1   2   3     2.090807881371   112.11322601   298.94519635
 H      3   2   1     1.937228849555   104.22372405   236.44014959

---------------------
BASIS SET INFORMATION
---------------------
There are 4 groups of distinct atoms

 Group   1 Type C   : 7s4p1d contracted to 3s2p1d pattern {511/31/1}
 Group   2 Type O   : 7s4p1d contracted to 3s2p1d pattern {511/31/1}
 Group   3 Type N   : 7s4p1d contracted to 3s2p1d pattern {511/31/1}
 Group   4 Type H   : 4s1p contracted to 2s1p pattern {31/1}

Atom   0C    basis set group =>   1
Atom   1O    basis set group =>   2
Atom   2N    basis set group =>   3
Atom   3H    basis set group =>   4
Atom   4H    basis set group =>   4
Atom   5H    basis set group =>   4
Atom   6H    basis set group =>   4
Atom   7H    basis set group =>   4
---------------------------------
AUXILIARY/J BASIS SET INFORMATION
---------------------------------
There are 4 groups of distinct atoms

 Group   1 Type C   : 12s5p4d2f1g contracted to 6s4p3d1f1g pattern {711111/2111/211/2/1}
 Group   2 Type O   : 12s5p4d2f1g contracted to 6s4p3d1f1g pattern {711111/2111/211/2/1}
 Group   3 Type N   : 12s5p4d2f1g contracted to 6s4p3d1f1g pattern {711111/2111/211/2/1}
 Group   4 Type H   : 5s2p1d contracted to 3s1p1d pattern {311/2/1}

Atom   0C    basis set group =>   1
Atom   1O    basis set group =>   2
Atom   2N    basis set group =>   3
Atom   3H    basis set group =>   4
Atom   4H    basis set group =>   4
Atom   5H    basis set group =>   4
Atom   6H    basis set group =>   4
Atom   7H    basis set group =>   4


           ************************************************************
           *        Program running with 6 parallel MPI-processes     *
           *              working on a common directory               *
           ************************************************************
------------------------------------------------------------------------------
                             ORCA STARTUP CALCULATIONS
                           -- RI-GTO INTEGRALS CHOSEN --
------------------------------------------------------------------------------
------------------------------------------------------------------------------
                   ___                                                        
                  /   \      - P O W E R E D   B Y -                         
                 /     \                                                     
                 |  |  |   _    _      __       _____    __    __             
                 |  |  |  | |  | |    /  \     |  _  \  |  |  /  |          
                  \  \/   | |  | |   /    \    | | | |  |  | /  /          
                 / \  \   | |__| |  /  /\  \   | |_| |  |  |/  /          
                |  |  |   |  __  | /  /__\  \  |    /   |      \           
                |  |  |   | |  | | |   __   |  |    \   |  |\   \          
                \     /   | |  | | |  |  |  |  | |\  \  |  | \   \       
                 \___/    |_|  |_| |__|  |__|  |_| \__\ |__|  \__/        
                                                                              
                      - O R C A' S   B I G   F R I E N D -                    
                                      &                                       
                       - I N T E G R A L  F E E D E R -                       
                                                                              
 v1 FN, 2020, v2 2021, v3 2022-2024                                           
------------------------------------------------------------------------------


----------------------
SHARK INTEGRAL PACKAGE
----------------------

Number of atoms                             ...      8
Number of basis functions                   ...     67
Number of shells                            ...     33
Maximum angular momentum                    ...      2
Integral batch strategy                     ... SHARK/LIBINT Hybrid
RI-J (if used) integral strategy            ... SPLIT-RIJ (Revised 2003 algorithm where possible)
Printlevel                                  ...      1
Contraction scheme used                     ... SEGMENTED contraction
Prescreening option                         ... SCHWARTZ
   Thresh                                   ... 2.500e-11
   Tcut                                     ... 2.500e-12
   Tpresel                                  ... 2.500e-12 
Coulomb Range Separation                    ... NOT USED
Exchange Range Separation                   ... NOT USED
Multipole approximations                    ... NOT USED
Finite Nucleus Model                        ... NOT USED
CABS basis                                  ... NOT available
Auxiliary Coulomb fitting basis             ... AVAILABLE
   # of basis functions in Aux-J            ...    202
   # of shells in Aux-J                     ...     70
   Maximum angular momentum in Aux-J        ...      4
Auxiliary J/K fitting basis                 ... NOT available
Auxiliary Correlation fitting basis         ... NOT available
Auxiliary 'external' fitting basis          ... NOT available

Checking pre-screening integrals            ... done (  0.0 sec) Dimension = 33
   => SHARK Basis and OBASIS are compatible. Storing Pre-screening
Shell pair information
Shell pair cut-off parameter TPreSel        ...   2.5e-12
Total number of shell pairs                 ...       561
Shell pairs after pre-screening             ...       560
Total number of primitive shell pairs       ...      1945
Primitive shell pairs kept                  ...      1666
          la=0 lb=0:    189 shell pairs
          la=1 lb=0:    209 shell pairs
          la=1 lb=1:     66 shell pairs
          la=2 lb=0:     57 shell pairs
          la=2 lb=1:     33 shell pairs
          la=2 lb=2:      6 shell pairs

Checking whether 4 symmetric matrices of dimension 67 fit in memory
:Max Core in MB      =   4096.00
 MB in use           =      3.95
 MB left             =   4092.05
 MB needed           =      0.07
 Data fit in memory  = YES
Calculating RI/J V-Matrix + Cholesky decomp.... done (  0.0 sec)
Calculating Nuclear repulsion               ... done (  0.0 sec) ENN=     82.975782234418 Eh

Diagonalization of the overlap matrix:
Smallest eigenvalue                        ... 1.175e-02
Time for diagonalization                   ...    0.001 sec
Threshold for overlap eigenvalues          ... 1.000e-07
Number of eigenvalues below threshold      ... 0
Time for construction of square roots      ...    0.000 sec
Total time needed                          ...    0.002 sec

-------------------
DFT GRID GENERATION
-------------------

General Integration Accuracy     IntAcc      ... 4.388
Radial Grid Type                 RadialGrid  ... OptM3 with GC (2021)
Angular Grid (max. ang.)         AngularGrid ... 4 (Lebedev-302)
Angular grid pruning method      GridPruning ... 4 (adaptive)
Weight generation scheme         WeightScheme... mBecke (2022)
Basis function cutoff            BFCut       ... 1.0000e-11
Integration weight cutoff        WCut        ... 1.0000e-14
Partially contracted basis set               ... off
Rotationally invariant grid construction     ... off
Angular grids for H and He will be reduced by one unit

Total number of grid points                  ...    34617
Total number of batches                      ...      545
Average number of points per batch           ...       63
Average number of grid points per atom       ...     4327

--------------------
COSX GRID GENERATION
--------------------

GRIDX 1
-------
General Integration Accuracy     IntAcc      ... 3.816
Radial Grid Type                 RadialGrid  ... OptM3 with GC (2021)
Angular Grid (max. ang.)         AngularGrid ... 1 (Lebedev-50)
Angular grid pruning method      GridPruning ... 4 (adaptive)
Weight generation scheme         WeightScheme... mBecke (2022)
Basis function cutoff            BFCut       ... 1.0000e-11
Integration weight cutoff        WCut        ... 1.0000e-14
Partially contracted basis set               ... on
Rotationally invariant grid construction     ... off
Angular grids for H and He will be reduced by one unit

Total number of grid points                  ...     4471
Total number of batches                      ...       41
Average number of points per batch           ...      109
Average number of grid points per atom       ...      559
UseSFitting                                  ... on

GRIDX 2
-------
General Integration Accuracy     IntAcc      ... 4.020
Radial Grid Type                 RadialGrid  ... OptM3 with GC (2021)
Angular Grid (max. ang.)         AngularGrid ... 2 (Lebedev-110)
Angular grid pruning method      GridPruning ... 4 (adaptive)
Weight generation scheme         WeightScheme... mBecke (2022)
Basis function cutoff            BFCut       ... 1.0000e-11
Integration weight cutoff        WCut        ... 1.0000e-14
Partially contracted basis set               ... on
Rotationally invariant grid construction     ... off
Angular grids for H and He will be reduced by one unit

Total number of grid points                  ...     9513
Total number of batches                      ...       77
Average number of points per batch           ...      123
Average number of grid points per atom       ...     1189
UseSFitting                                  ... on

GRIDX 3
-------
General Integration Accuracy     IntAcc      ... 4.338
Radial Grid Type                 RadialGrid  ... OptM3 with GC (2021)
Angular Grid (max. ang.)         AngularGrid ... 3 (Lebedev-194)
Angular grid pruning method      GridPruning ... 4 (adaptive)
Weight generation scheme         WeightScheme... mBecke (2022)
Basis function cutoff            BFCut       ... 1.0000e-11
Integration weight cutoff        WCut        ... 1.0000e-14
Partially contracted basis set               ... on
Rotationally invariant grid construction     ... off
Angular grids for H and He will be reduced by one unit

Total number of grid points                  ...    20931
Total number of batches                      ...      168
Average number of points per batch           ...      124
Average number of grid points per atom       ...     2616
UseSFitting                                  ... on
Grids setup in   0.4 sec
Initializing property integral containers    ... done (  0.0 sec)

SHARK setup successfully completed in   0.5 seconds

Maximum memory used throughout the entire STARTUP-calculation: 11.3 MB


           ************************************************************
           *        Program running with 6 parallel MPI-processes     *
           *              working on a common directory               *
           ************************************************************
-------------------------------------------------------------------------------
                                 ORCA GUESS
                   Start orbitals & Density for SCF / CASSCF
-------------------------------------------------------------------------------

------------
SCF SETTINGS
------------
Hamiltonian:
 Density Functional     Method          .... DFT(GTOs)
 Exchange Functional    Exchange        .... B88
   X-Alpha parameter    XAlpha          ....  0.666667
   Becke's b parameter  XBeta           ....  0.004200
 Correlation Functional Correlation     .... LYP
 LDA part of GGA corr.  LDAOpt          .... VWN-5
 Gradients option       PostSCFGGA      .... off
 Hybrid DFT is turned on
   Fraction HF Exchange ScalHFX         ....  0.200000
   Scaling of DF-GGA-X  ScalDFX         ....  0.720000
   Scaling of DF-GGA-C  ScalDFC         ....  0.810000
   Scaling of DF-LDA-C  ScalLDAC        ....  1.000000
   Perturbative correction              ....  0.000000
   NL short-range parameter             ....  4.800000
 RI-approximation to the Coulomb term is turned on
   Number of AuxJ basis functions       .... 202
   RIJ-COSX (HFX calculated with COS-X)).... on


General Settings:
 Integral files         IntName         .... orca
 Hartree-Fock type      HFTyp           .... RHF
 Total Charge           Charge          ....    0
 Multiplicity           Mult            ....    1
 Number of Electrons    NEL             ....   26
 Basis Dimension        Dim             ....   67
 Nuclear Repulsion      ENuc            ....     82.9757822344 Eh

Convergence Acceleration:
 AO-DIIS                CNVDIIS         .... on
   Start iteration      DIISMaxIt       ....    12
   Startup error        DIISStart       ....  0.200000
   # of expansion vecs  DIISMaxEq       ....     5
   Bias factor          DIISBfac        ....   1.050
   Max. coefficient     DIISMaxC        ....  10.000
 MO-DIIS                CNVKDIIS        .... off
 Trust-Rad. Augm. Hess. CNVTRAH         .... auto
   Auto Start mean grad. ratio tolernc. ....  1.125000
   Auto Start start iteration           ....    50
   Auto Start num. interpolation iter.  ....    10
   Max. Number of Micro iterations      ....    24
   Max. Number of Macro iterations      .... Maxiter - #DIIS iter
   Number of Davidson start vectors     ....     2
   Converg. threshold    (grad. norm)   ....   1.000e-05
   Grad. Scal. Fac. for Micro threshold ....   0.100
   Minimum threshold for Micro iter.    ....   1.000e-02
   NR start threshold (gradient norm)   ....   1.000e-04
   Initial trust radius                 ....   0.400
   Minimum AH scaling param. (alpha)    ....   1.000
   Maximum AH scaling param. (alpha)    .... 1000.000
   Quad. conv. algorithm                .... NR
   White noise on init. David. guess    .... on
   Maximum white noise                  ....   0.010
   Pseudo random numbers                .... off
   Inactive MOs                         .... canonical
   Orbital update algorithm             .... Taylor
   Preconditioner                       .... Diag
   Full preconditioner red. dimension   ....   250
 SOSCF                 CNVSOSCF           .... on
   Start iteration     SOSCFMaxIt         ....   150
   Startup grad/error  SOSCFStart         ....  0.003300
   Hessian update      SOSCFHessUp        .... L-BFGS
   Autom. constraints  SOSCFAutoConstrain .... off
 Level Shifting         CNVShift        .... on
   Level shift para.    LevelShift      ....    0.2500
   Turn off err/grad.   ShiftErr        ....    0.0010
 Zerner damping         CNVZerner       .... off
 Static damping         CNVDamp         .... on
   Fraction old density DampFac         ....    0.7000
   Max. Damping (<1)    DampMax         ....    0.9800
   Min. Damping (>=0)   DampMin         ....    0.0000
   Turn off err/grad.   DampErr         ....    0.1000

SCF Procedure:
 Maximum # iterations   MaxIter         ....   125
 SCF integral mode      SCFMode         .... Direct
   Integral package                     .... SHARK and LIBINT hybrid scheme
 Reset frequency        DirectResetFreq ....    20
 Integral Threshold     Thresh          ....  2.500e-11 Eh
 Primitive CutOff       TCut            ....  2.500e-12 Eh

Convergence Tolerance:
 Convergence Check Mode ConvCheckMode   .... Total+1el-Energy
 Convergence forced     ConvForced      .... 0
 Energy Change          TolE            ....  1.000e-08 Eh
 1-El. energy change                    ....  1.000e-05 Eh
 Orbital Gradient       TolG            ....  1.000e-05
 Orbital Rotation angle TolX            ....  1.000e-05
 DIIS Error             TolErr          ....  5.000e-07

------------------------------
INITIAL GUESS: MODEL POTENTIAL
------------------------------
Loading Hartree-Fock densities                     ... done
Calculating cut-offs                               ... done
Initializing the effective Hamiltonian             ... done
Setting up the integral package (SHARK)            ... done
Starting the Coulomb interaction                   ... done (   0.0 sec)
Making the grid                                    ... done (   0.1 sec)
Mapping shells                                     ... done
Starting the XC term evaluation                    ... done (   0.0 sec)
  promolecular density results
     # of electrons  =     25.997247754
     EX              =    -21.355735313
     EC              =     -0.867281292
     EX+EC           =    -22.223016606
Transforming the Hamiltonian                       ... done (   0.0 sec)
Diagonalizing the Hamiltonian                      ... done (   0.0 sec)
Back transforming the eigenvectors                 ... done (   0.0 sec)
Now organizing SCF variables                       ... done
                      ------------------
                      INITIAL GUESS DONE (   0.1 sec)
                      ------------------
             **** ENERGY FILE WAS UPDATED (orca.en.tmp) ****
Finished Guess after   0.2 sec
Maximum memory used throughout the entire GUESS-calculation: 6.2 MB


           ************************************************************
           *        Program running with 6 parallel MPI-processes     *
           *              working on a common directory               *
           ************************************************************

-------------------------------------------------------------------------------------------
                                      ORCA LEAN-SCF
                              memory conserving SCF solver
-------------------------------------------------------------------------------------------

----------------------------------------D-I-I-S--------------------------------------------
Iteration    Energy (Eh)           Delta-E    RMSDP     MaxDP     DIISErr   Damp  Time(sec)
-------------------------------------------------------------------------------------------
               ***  Starting incremental Fock matrix formation  ***
    1    -170.7116967961205489     0.00e+00  1.05e-02  6.42e-02  1.67e-01  0.700   0.2
    2    -170.7481924058459128    -3.65e-02  7.25e-03  3.65e-02  8.27e-02  0.700   0.1
                               ***Turning on AO-DIIS***
    3    -170.7636847591877824    -1.55e-02  2.71e-03  9.72e-03  2.96e-02  0.700   0.2
    4    -170.7727443646869290    -9.06e-03  4.63e-03  1.78e-02  1.75e-02  0.000   0.2
    5    -170.7923308244004659    -1.96e-02  5.98e-04  2.68e-03  3.40e-03  0.000   0.1
                              *** Initializing SOSCF ***
---------------------------------------S-O-S-C-F--------------------------------------
Iteration    Energy (Eh)           Delta-E    RMSDP     MaxDP     MaxGrad    Time(sec)
--------------------------------------------------------------------------------------
    6    -170.7923744389226215    -4.36e-05  2.32e-04  9.01e-04  1.09e-03     0.2
               *** Restarting incremental Fock matrix formation ***
    7    -170.7923855562695223    -1.11e-05  2.01e-04  9.15e-04  2.79e-04     0.2
    8    -170.7923848163714240     7.40e-07  8.32e-05  5.82e-04  4.86e-04     0.2
    9    -170.7923863719364306    -1.56e-06  1.74e-05  9.08e-05  2.52e-05     0.2
   10    -170.7923863705708243     1.37e-09  9.31e-06  4.77e-05  2.62e-05     0.3
                 **** Energy Check signals convergence ****

               *****************************************************
               *                     SUCCESS                       *
               *           SCF CONVERGED AFTER  10 CYCLES          *
               *****************************************************

Recomputing exchange energy using gridx3       ... done (    0.234 sec)
Old exchange energy                            :     -4.344905785 Eh
New exchange energy                            :     -4.344929545 Eh
Exchange energy change after final integration :     -0.000023759 Eh
Total energy after final integration           :   -170.792410142 Eh
             **** ENERGY FILE WAS UPDATED (orca.en.tmp) ****

----------------
TOTAL SCF ENERGY
----------------

Total Energy       :       -170.79241014238355 Eh           -4647.49775 eV

Components:
Nuclear Repulsion  :         82.97578223441818 Eh            2257.88582 eV
Electronic Energy  :       -253.76816861731280 Eh           -6905.38293 eV
One Electron Energy:       -396.59863255590426 Eh          -10791.99745 eV
Two Electron Energy:        142.83046393859146 Eh            3886.61452 eV

Virial components:
Potential Energy   :       -340.19774166859736 Eh           -9257.25118 eV
Kinetic Energy     :        169.40533152621379 Eh            4609.75343 eV
Virial Ratio       :          2.00818792775690

DFT components:
N(Alpha)           :       12.999994821509 electrons
N(Beta)            :       12.999994821509 electrons
N(Total)           :       25.999989643018 electrons
E(X)               :      -17.279959688446 Eh       
E(C)               :       -1.028119412872 Eh       
E(XC)              :      -18.308079101317 Eh       

---------------
SCF CONVERGENCE
---------------

  Last Energy change         ...   -1.3656e-09  Tolerance :   1.0000e-08
  Last MAX-Density change    ...    4.7655e-05  Tolerance :   1.0000e-07
  Last RMS-Density change    ...    9.3095e-06  Tolerance :   5.0000e-09
  Last DIIS Error            ...    1.0858e-03  Tolerance :   5.0000e-07
  Last Orbital Gradient      ...    2.6238e-05  Tolerance :   1.0000e-05
  Last Orbital Rotation      ...    1.8964e-05  Tolerance :   1.0000e-05


----------------
ORBITAL ENERGIES
----------------

  NO   OCC          E(Eh)            E(eV) 
   0   2.0000     -19.144635      -520.9520 
   1   2.0000     -14.352471      -390.5506 
   2   2.0000     -10.219071      -278.0751 
   3   2.0000      -1.043263       -28.3886 
   4   2.0000      -0.804747       -21.8983 
   5   2.0000      -0.638994       -17.3879 
   6   2.0000      -0.500246       -13.6124 
   7   2.0000      -0.489106       -13.3093 
   8   2.0000      -0.437211       -11.8971 
   9   2.0000      -0.414017       -11.2660 
  10   2.0000      -0.355113        -9.6631 
  11   2.0000      -0.256864        -6.9896 
  12   2.0000      -0.248761        -6.7691 
  13   0.0000       0.059109         1.6084 
  14   0.0000       0.091250         2.4830 
  15   0.0000       0.118812         3.2331 
  16   0.0000       0.127062         3.4575 
  17   0.0000       0.141174         3.8415 
  18   0.0000       0.146734         3.9928 
  19   0.0000       0.208007         5.6602 
  20   0.0000       0.458106        12.4657 
  21   0.0000       0.461935        12.5699 
  22   0.0000       0.517259        14.0753 
  23   0.0000       0.564530        15.3616 
*Only the first 10 virtual orbitals were printed.

                    ********************************
                    * MULLIKEN POPULATION ANALYSIS *
                    ********************************

-----------------------
MULLIKEN ATOMIC CHARGES
-----------------------
   0 C :    0.213885
   1 O :   -0.386978
   2 N :   -0.037343
   3 H :    0.100704
   4 H :    0.015028
   5 H :   -0.003217
   6 H :   -0.002505
   7 H :    0.100426
Sum of atomic charges:    0.0000000

--------------------------------
MULLIKEN REDUCED ORBITAL CHARGES
--------------------------------
  0 C s       :     2.995852  s :     2.995852
      pz      :     1.015318  p :     2.736475
      px      :     0.786504
      py      :     0.934653
      dz2     :     0.009083  d :     0.053787
      dxz     :     0.008367
      dyz     :     0.011079
      dx2y2   :     0.008560
      dxy     :     0.016699

  1 O s       :     3.823600  s :     3.823600
      pz      :     1.883839  p :     4.543197
      px      :     1.138334
      py      :     1.521025
      dz2     :     0.002590  d :     0.020180
      dxz     :     0.002772
      dyz     :     0.002116
      dx2y2   :     0.003736
      dxy     :     0.008966

  2 N s       :     3.446452  s :     3.446452
      pz      :     1.095704  p :     3.557984
      px      :     0.954312
      py      :     1.507968
      dz2     :     0.003402  d :     0.032908
      dxz     :     0.010151
      dyz     :     0.005400
      dx2y2   :     0.003366
      dxy     :     0.010588

  3 H s       :     0.857197  s :     0.857197
      pz      :     0.018642  p :     0.042099
      px      :     0.011746
      py      :     0.011711

  4 H s       :     0.963523  s :     0.963523
      pz      :     0.005539  p :     0.021448
      px      :     0.008028
      py      :     0.007881

  5 H s       :     0.981488  s :     0.981488
      pz      :     0.012793  p :     0.021729
      px      :     0.003038
      py      :     0.005898

  6 H s       :     0.980781  s :     0.980781
      pz      :     0.008902  p :     0.021724
      px      :     0.002738
      py      :     0.010084

  7 H s       :     0.857496  s :     0.857496
      pz      :     0.020039  p :     0.042078
      px      :     0.009407
      py      :     0.012632



                     *******************************
                     * LOEWDIN POPULATION ANALYSIS *
                     *******************************

----------------------
LOEWDIN ATOMIC CHARGES
----------------------
   0 C :    0.056994
   1 O :   -0.171078
   2 N :   -0.008198
   3 H :    0.051063
   4 H :    0.017112
   5 H :    0.001577
   6 H :    0.001821
   7 H :    0.050709

-------------------------------
LOEWDIN REDUCED ORBITAL CHARGES
-------------------------------
  0 C s       :     2.860054  s :     2.860054
      pz      :     1.072766  p :     2.957729
      px      :     0.874126
      py      :     1.010837
      dz2     :     0.021205  d :     0.125223
      dxz     :     0.017768
      dyz     :     0.028999
      dx2y2   :     0.018768
      dxy     :     0.038484

  1 O s       :     3.520530  s :     3.520530
      pz      :     1.869159  p :     4.615821
      px      :     1.182034
      py      :     1.564629
      dz2     :     0.004133  d :     0.034727
      dxz     :     0.004388
      dyz     :     0.002570
      dx2y2   :     0.007195
      dxy     :     0.016441

  2 N s       :     3.214723  s :     3.214723
      pz      :     1.169593  p :     3.728179
      px      :     1.014781
      py      :     1.543805
      dz2     :     0.007608  d :     0.065296
      dxz     :     0.023853
      dyz     :     0.008744
      dx2y2   :     0.006179
      dxy     :     0.018912

  3 H s       :     0.833560  s :     0.833560
      pz      :     0.046143  p :     0.115377
      px      :     0.035005
      py      :     0.034229

  4 H s       :     0.921568  s :     0.921568
      pz      :     0.013299  p :     0.061320
      px      :     0.025533
      py      :     0.022488

  5 H s       :     0.935701  s :     0.935701
      pz      :     0.037585  p :     0.062721
      px      :     0.009649
      py      :     0.015487

  6 H s       :     0.935391  s :     0.935391
      pz      :     0.024656  p :     0.062788
      px      :     0.008635
      py      :     0.029497

  7 H s       :     0.833935  s :     0.833935
      pz      :     0.046859  p :     0.115357
      px      :     0.027331
      py      :     0.041166



                      *****************************
                      * MAYER POPULATION ANALYSIS *
                      *****************************

  NA   - Mulliken gross atomic population
  ZA   - Total nuclear charge
  QA   - Mulliken gross atomic charge
  VA   - Mayer's total valence
  BVA  - Mayer's bonded valence
  FA   - Mayer's free valence

  ATOM       NA         ZA         QA         VA         BVA        FA
  0 C      5.7861     6.0000     0.2139     3.9166     3.9166     0.0000
  1 O      8.3870     8.0000    -0.3870     2.0053     2.0053     0.0000
  2 N      7.0373     7.0000    -0.0373     2.9490     2.9490     0.0000
  3 H      0.8993     1.0000     0.1007     0.9963     0.9963     0.0000
  4 H      0.9850     1.0000     0.0150     0.9909     0.9909     0.0000
  5 H      1.0032     1.0000    -0.0032     0.9922     0.9922     0.0000
  6 H      1.0025     1.0000    -0.0025     0.9929     0.9929     0.0000
  7 H      0.8996     1.0000     0.1004     0.9959     0.9959     0.0000

  Mayer bond orders larger than 0.100000
B(  0-C ,  1-O ) :   0.9871 B(  0-C ,  4-H ) :   0.9751 B(  0-C ,  5-H ) :   0.9699 
B(  0-C ,  6-H ) :   0.9699 B(  1-O ,  2-N ) :   0.9516 B(  2-N ,  3-H ) :   0.9741 
B(  2-N ,  7-H ) :   0.9738 

-------
TIMINGS
-------

Total SCF time: 0 days 0 hours 0 min 2 sec 

Total time                  ....       2.426 sec
Sum of individual times     ....       2.202 sec  ( 90.8%)

SCF preparation             ....       0.147 sec  (  6.0%)
Fock matrix formation       ....       1.931 sec  ( 79.6%)
  Startup                   ....       0.004 sec  (  0.2% of F)
  Split-RI-J                ....       0.129 sec  (  6.7% of F)
  Chain of spheres X        ....       1.381 sec  ( 71.5% of F)
  XC integration            ....       0.485 sec  ( 25.1% of F)
    XC Preparation          ....       0.000 sec  (  0.0% of XC)
    Basis function eval.    ....       0.136 sec  ( 28.0% of XC)
    Density eval.           ....       0.064 sec  ( 13.3% of XC)
    XC-Functional eval.     ....       0.041 sec  (  8.4% of XC)
    XC-Potential eval.      ....       0.075 sec  ( 15.5% of XC)
Diagonalization             ....       0.000 sec  (  0.0%)
Density matrix formation    ....       0.018 sec  (  0.7%)
Total Energy calculation    ....       0.010 sec  (  0.4%)
Population analysis         ....       0.012 sec  (  0.5%)
Orbital Transformation      ....       0.009 sec  (  0.4%)
Orbital Orthonormalization  ....       0.000 sec  (  0.0%)
DIIS solution               ....       0.047 sec  (  2.0%)
SOSCF solution              ....       0.028 sec  (  1.2%)
Finished LeanSCF after   2.4 sec

Maximum memory used throughout the entire LEANSCF-calculation: 6.5 MB


-------------------------------------------------------------------------------
                          DFT DISPERSION CORRECTION                            
                                                                               
                              DFTD3 V3.1  Rev 1                                
                          USING Becke-Johnson damping                          
-------------------------------------------------------------------------------
The B3LYP functional is recognized
Active option DFTDOPT                   ...         4   

molecular C6(AA) [au] = 405.499381 


            DFT-D V3
 parameters
 s6 scaling factor         :     1.0000 
 a1 scaling factor         :     0.3981 
 s8 scaling factor         :     1.9889 
 a2 scaling factor         :     4.4211 
 ad hoc parameters k1-k3   :    16.0000     1.3333    -4.0000 

 Edisp/kcal,au: -3.460913664842  -0.005515316404 
 E6   /kcal   :  -1.770745293 
 E8   /kcal   :  -1.690168371 
 % E8         :  48.835901009 

-------------------------   ----------------
Dispersion correction           -0.005515316
-------------------------   ----------------


-------------------------   --------------------
FINAL SINGLE POINT ENERGY      -170.797925458787
-------------------------   --------------------



           ************************************************************
           *        Program running with 6 parallel MPI-processes     *
           *              working on a common directory               *
           ************************************************************
------------------------------------------------------------------------------
                         ORCA SCF GRADIENT CALCULATION
------------------------------------------------------------------------------

Nuc. rep. gradient        (SHARK) ... done (  0.0 sec)
HCore & Overlap gradient  (SHARK) ... done (  0.0 sec)
Split-RIJ-J gradient      (SHARK) ... done (  0.1 sec)
done (  1.0 sec)
XC gradient                       ... done (  0.2 sec)
Dispersion correction             ... done (  0.0 sec)

-------------------
DISPERSION GRADIENT
-------------------

   1   C   :    0.000191360   -0.000014188    0.000013337
   2   O   :   -0.000019086    0.000029025    0.000005764
   3   N   :   -0.000217973    0.000008022   -0.000016448
   4   H   :   -0.000169136    0.000005805    0.000032258
   5   H   :    0.000124532    0.000028473    0.000017587
   6   H   :    0.000129940   -0.000030247   -0.000043100
   7   H   :    0.000122408   -0.000051966    0.000045187
   8   H   :   -0.000162045    0.000025077   -0.000054584

Difference to translation invariance:
           :    0.0000000000    0.0000000000    0.0000000000

Difference to rotation invariance:
           :    0.0000000000    0.0000000000   -0.0000000000

Norm of the Dispersion gradient    ...    0.0004490481
RMS gradient                       ...    0.0000916616
MAX gradient                       ...    0.0002179733

------------------
CARTESIAN GRADIENT
------------------

   1   C   :    0.000026205   -0.000078913    0.000015289
   2   O   :   -0.000088192    0.000022961    0.000080216
   3   N   :   -0.000058465    0.000109024    0.000028288
   4   H   :   -0.000035886   -0.000020195    0.000021250
   5   H   :    0.000016037    0.000032145   -0.000036367
   6   H   :    0.000031366   -0.000010600   -0.000033555
   7   H   :    0.000080901   -0.000025552    0.000005140
   8   H   :    0.000028035   -0.000028869   -0.000080261

Difference to translation invariance:
           :    0.0000000000    0.0000000000    0.0000000000

Difference to rotation invariance:
           :    0.0000316080    0.0000427839    0.0000082689

Norm of the Cartesian gradient     ...    0.0002454789
RMS gradient                       ...    0.0000501082
MAX gradient                       ...    0.0001090241

-------
TIMINGS
-------

Total SCF gradient time     ....        1.403 sec

Densities                   ....       0.000 sec  (  0.0%)
One electron gradient       ....       0.012 sec  (  0.8%)
RI-J Coulomb gradient       ....       0.110 sec  (  7.9%)
COSX gradient               ....       1.016 sec  ( 72.4%)
XC gradient                 ....       0.225 sec  ( 16.0%)

Maximum memory used throughout the entire SCFGRAD-calculation: 26.1 MB


           ************************************************************
           *        Program running with 6 parallel MPI-processes     *
           *              working on a common directory               *
           ************************************************************

------------------------------------------------------------------------------
                              ORCA PROPERTY CALCULATIONS
------------------------------------------------------------------------------

GBWName                                 ... orca.gbw
Number of atoms                         ...      8
Number of basis functions               ...     67
Max core memory                         ...   4096 MB

Electric properties:
Dipole moment                           ... YES
Quadrupole moment                       ...  NO
Static polarizability (Dipole/Dipole)   ...  NO
Static polarizability (Dipole/Quad.)    ...  NO
Static polarizability (Quad./Quad.)     ...  NO
Static polarizability (Velocity)        ...  NO
Static hyperpolarizability              ...  NO

Atomic electric properties:
Dipole moment                           ...  NO
Quadrupole moment                       ...  NO
Static polarizability                   ...  NO

Choice of electric origin               ... Center of mass
Position of electric origin             ...    -0.072243    -0.009380     0.051218

General magnetic properties:
Magnetizability                         ...  NO

EPR properties:
g-Tensor (aka g-matrix)                 ...  NO
Zero-Field splitting spin-orbit         ...  NO
Zero-field splitting spin-spin          ...  NO
Hyperfine couplings                     ...  NO (   0 nuclei)
Quadrupole couplings                    ...  NO (   0 nuclei)
Contact density                         ...  NO (   0 nuclei)

NMR properties:
Chemical shifts                         ...  NO (   0 nuclei)
Spin-rotation constants                 ...  NO (   0 nuclei)
Spin-spin couplings                     ...  NO (   0 nuclei,    0 pairs)

Choice of magnetic origin               ... GIAO
Position of magnetic origin             ...     0.000000     0.000000     0.000000

Properties with geometric perturbations:
SCF Hessian                             ...  NO
IR spectrum                             ...  NO
VCD spectrum                            ...  NO
X-ray spectroscopy properties:
SCF XES/XAS/RIXS spectra                ...  NO

SCF SOC stabilization energy            ...  NO
Diagonal Born-Oppenheimer correction    ...  NO

-------------
DIPOLE MOMENT
-------------

Method             : SCF
Type of density    : Electron Density
Multiplicity       :   1
Irrep              :   0
Energy             :  -170.7924101423835452 Eh
Basis              : AO
                                X                 Y                 Z
Electronic contribution:     -1.403529688       1.178947174       0.183001669
Nuclear contribution   :      1.165333719      -1.176734220      -0.219964322
                        -----------------------------------------
Total Dipole Moment    :     -0.238195969       0.002212954      -0.036962653
                        -----------------------------------------
Magnitude (a.u.)       :      0.241056953
Magnitude (Debye)      :      0.612718082



--------------------
Rotational spectrum 
--------------------
 
Rotational constants in cm-1:             1.460538             0.333273             0.299837 
Rotational constants in MHz :         43785.835653          9991.264271          8988.889070 

Dipole components along the rotational axes: 
x,y,z [a.u.] :    -0.240434    -0.004016    -0.016845 
x,y,z [Debye]:    -0.611135    -0.010208    -0.042817 

 

Dipole moment calculation done in   0.0 sec 

Maximum memory used throughout the entire PROP-calculation: 4.1 MB

--------------------------------
SUGGESTED CITATIONS FOR THIS RUN
--------------------------------

Below you find a list of papers that are relevant to this ORCA run
We neither can nor want to force you to cite these papers, but we appreciate if you do
You receive ORCA, which is the product of decades of hard work by many enthusiastic individuals, for free
The only thing we kindly ask in return is that you cite our papers,
We deeply appreciate it, if you show your appreciation for ORCA by not just citing the generic ORCA reference.

Please note that relegating all ORCA citations to the supporting information does *not* help us.
SI sections are not indexed - citations you put there will not count into any citation statistics
But we need these citations in order to attract the funding resources that allow us to do what we are doing

Therefore, if you are a happy ORCA user, please consider citing a few of the papers listed below in the main body of your paper

In addition to the list printed below, the program has created the file orca.bibtex that contains the list in bibtex format
You can import this file easily into all common literature databanks and citation aid programs


List of essential papers. We consider these as the minimum necessary citations

  1. Neese, F.
     Software update: the ORCA program system, version 6.0
     WIRES Comput. Molec. Sci. 2025 15(1), e70019
     doi.org/10.1002/wcms.7019

List of papers to cite with high priority. The work reported in these papers was absolutely
necessary for this run to complete.
Our perspective: the developers of density functionals and basis sets usually get cited in chemistry papers
Good! But without the algorithms to do something with them, the functionals or basis sets would not do anything.
Hence, in our opinion, the algorithm design and method developments papers are equally worthy of getting cited

  1. Neese, F.
     An improvement of the resolution of the identity approximation for the formation of the Coulomb matrix
     J. Comp. Chem. 2003 24(14), 1740-1747
     doi.org/10.1002/jcc.10318
  2. Neese, F.; Wennmohs, F.; Hansen, A.; Becker, U.
     Efficient, approximate and parallel Hartree-Fock and hybrid DFT calculations. A 'chain-of-spheres' algorithm for the Hartree-Fock exchange
     Chem. Phys. 2009 356(1-3), 98-109
     doi.org/10.1016/j.chemphys.2008.10.036
  3. Grimme, S.; Antony, J.; Ehrlich, S.; Krieg, H.
     A consistent and accurate ab initio parametrization of density functional dispersion correction (DFT-D) for the 94 elements H-Pu
     J. Chem. Phys. 2010 132 , 154104
     doi.org/10.1063/1.3382344
  4. Grimme, S.; Ehrlich, S.; Goerigk, L.
     Effect of the damping function in dispersion corrected density functional theory
     J. Comput. Chem. 2011 32(7), 1456-1465
     doi.org/10.1002/jcc.21759
  5. Helmich-Paris, B.; de Souza, B.; Neese, F.; Izsák, R.
     An improved chain of spheres for exchange algorithm
     J. Chem. Phys. 2021 155(10), 104109
     doi.org/10.1063/5.0058766
  6. Neese, F.
     The SHARK Integral Generation and Digestion System
     J. Comp. Chem. 2022 44(3), 381
     doi.org/10.1002/jcc.26942

List of suggested additional citations. These are papers that are important in the 'surrounding' of 
of this run, or papers that preceded the highly important papers. If you like your results we are grateful for a citation.

  1. Izsak, R.; Neese, F.
     An overlap fitted chain of spheres exchange method
     J. Chem. Phys. 2011 135 , 144105
     doi.org/10.1063/1.3646921
  2. Izsak, R.; Hansen, A.; Neese, F.
     The resolution of identity and chain of spheres approximations for the LPNO-CCSD singles Fock term
     Molec. Phys. 2012 110 , 2413-2417
     doi.org/10.1080/00268976.2012.687466
  3. Neese, F.
     The ORCA program system
     WIRES Comput. Molec. Sci. 2012 2(1), 73-78
     doi.org/10.1002/wcms.81
  4. Izsak, R.; Neese, F.; Klopper, W.
     Robust fitting techniques in the chain of spheres approximation to the Fock exchange: The role of the complementary space
     J. Chem. Phys. 2013 139 , 
     doi.org/10.1063/1.4819264
  5. Neese, F.
     Software update: the ORCA program system, version 4.0
     WIRES Comput. Molec. Sci. 2018 8(1), 1-6
     doi.org/10.1002/wcms.1327
  6. Neese, F.; Wennmohs, F.; Becker, U.; Riplinger, C.
     The ORCA quantum chemistry program package
     J. Chem. Phys. 2020 152(22), 224108
     doi.org/10.1063/5.0004608
  7. Neese, F.
     Software update: The ORCA program system—Version 5.0
     WIRES Comput. Molec. Sci. 2022 12(1), e1606
     doi.org/10.1002/wcms.1606

List of optional additional citations

  1. Neese, F.
     Approximate second-order SCF convergence for spin unrestricted wavefunctions
     Chem. Phys. Lett. 2000 325(1-3), 93-98
     doi.org/10.1016/s0009-2614(00)00662-x

Timings for individual modules:

Sum of individual times          ...        6.410 sec (=   0.107 min)
Startup calculation              ...        0.822 sec (=   0.014 min)  12.8 %
SCF iterations                   ...        3.247 sec (=   0.054 min)  50.6 %
Property calculations            ...        0.464 sec (=   0.008 min)   7.2 %
SCF Gradient evaluation          ...        1.878 sec (=   0.031 min)  29.3 %
                             ****ORCA TERMINATED NORMALLY****
TOTAL RUN TIME: 0 days 0 hours 0 minutes 6 seconds 945 msec
