
                                 *****************
                                 * O   R   C   A *
                                 *****************

                                            #,                                       
                                            ###                                      
                                            ####                                     
                                            #####                                    
                                            ######                                   
                                           ########,                                 
                                     ,,################,,,,,                         
                               ,,#################################,,                 
                          ,,##########################################,,             
                       ,#########################################, ''#####,          
                    ,#############################################,,   '####,        
                  ,##################################################,,,,####,       
                ,###########''''           ''''###############################       
              ,#####''   ,,,,##########,,,,          '''####'''          '####       
            ,##' ,,,,###########################,,,                        '##       
           ' ,,###''''                  '''############,,,                           
         ,,##''                                '''############,,,,        ,,,,,,###''
      ,#''                                            '''#######################'''  
     '                                                          ''''####''''         
             ,#######,   #######,   ,#######,      ##                                
            ,#'     '#,  ##    ##  ,#'     '#,    #''#        ,####,    ,#,          
            ##       ##  ##   ,#'  ##            #'  '#       #'       ,# #          
            ##       ##  #######   ##           ,######,      #####,      #          
            '#,     ,#'  ##    ##  '#,     ,#' ,#      #,     #,   #      #          
             '#######'   ##     ##  '#######'  #'      '#     '####' #    #          



                #########################################################
                #                        -***-                          #
                #          Department of theory and spectroscopy        #
                #                                                       #
                #                      Frank Neese                      #
                #                                                       #
                #     Directorship, Architecture, Infrastructure        #
                #                    SHARK, DRIVERS                     #
                #        Core code/Algorithms in most modules           #
                #                                                       #
                #        Max Planck Institute fuer Kohlenforschung      #
                #                Kaiser Wilhelm Platz 1                 #
                #                 D-45470 Muelheim/Ruhr                 #
                #                      Germany                          #
                #                                                       #
                #                  All rights reserved                  #
                #                        -***-                          #
                #########################################################


                         Program Version 6.1.0  -  RELEASE   -
                                (GIT: $679e74b$)
                          ($2025-06-10 18:02:51 +0200$)


 With contributions from (in alphabetic order):
[Max-Planck-Institut fuer Kohlenforschung]                               
  Daniel Aravena         : Magnetic Suceptibility                        
  Michael Atanasov       : Ab Initio Ligand Field Theory (pilot matlab implementation)
  Alexander A. Auer      : GIAO ZORA, VPT2 properties, NMR spectrum      
  Ute Becker             : All parallelization in ORCA, NUMFREQ, NUMCALC 
  Giovanni Bistoni       : ED, misc. LED, open-shell LED, HFLD           
  Dmytro Bykov           : pre 5.0 version of the SCF Hessian            
  Marcos Casanova-Páez   : Triplet and SCS-CIS(D). UHF-(DLPNO)-IP/EA/STEOM-CCSD. UHF-CVS-IP/STEOM-CCSD   
  Vijay G. Chilkuri      : MRCI spin determinant printing, contributions to CSF-ICE 
  Pauline Colinet        : FMM embedding                                 
  Dipayan Datta          : RHF DLPNO-CCSD density                        
  Achintya Kumar Dutta   : EOM-CC, STEOM-CC                              
  Nicolas Foglia         : Exact transition moments, OPA infrastructure, MCD improvements    
  Dmitry Ganyushin       : Spin-Orbit,Spin-Spin,Magnetic field MRCI      
  Miquel Garcia-Rates    : C-PCM and meta-GGA Hessian, CCSD/C-PCM, Gaussian charge scheme 
  Tiago L. C. Gouveia    : GS-ROHF, GS-ROCIS                             
  Yang Guo               : DLPNO-NEVPT2, F12-NEVPT2, CIM, IAO-localization        
  Andreas Hansen         : Spin unrestricted coupled pair/coupled cluster methods 
  Ingolf Harden          : AUTO-CI MPn and infrastructure                
  Benjamin Helmich-Paris : MC-RPA, TRAH-(SCF,CASSCF), AVAS, COSX integrals, SCF dyn. polar., MC-PDFT, srDFT 
  Lee Huntington         : MR-EOM, pCC                                   
  Robert Izsak           : Overlap fitted RIJCOSX, COSX-SCS-MP3, EOM     
  Riya Kayal             : Wick's Theorem for AUTO-CI, AUTO-CI UHF-CCSDT 
  Emily Kempfer          : AUTO-CI RHF CISDT and CCSDT, approximate NEVPT4
  Christian Kollmar      : KDIIS, OOCD, Brueckner-CCSD(T), CCSD density, CASPT2, CASPT2-K, improved NEVPT2 
  Axel Koslowski         : Symmetry handling                             
  Simone Kossmann        : meta-GGA functionals, TD-DFT gradient, OOMP2, (MP2 Hessian; deprecated post 5.0) 
  Lucas Lang             : DCDCAS, Hyperfine gauge corrections, ICE-SOC+SSC
  Marvin Lechner         : AUTO-CI (C++ implementation), FIC-MRCC        
  Spencer Leger          : CASSCF response                               
  Dagmar Lenk            : GEPOL surface, SMD, ORCA-2-JSON               
  Dimitrios Liakos       : Extrapolation schemes; Compound Job, Property file
  Dimitrios Manganas     : Further ROCIS development; embedding schemes. LFT, Crystal Embedding 
  Dimitrios Pantazis     : SARC Basis sets                               
  Anastasios Papadopoulos: AUTO-CI, single reference methods and gradients 
  Taras Petrenko         : pre 6.0 DFT Hessian and TD-DFT gradient,  ECA, NRVS 
  Petra Pikulova         : Analytic Raman intensities                    
  Peter Pinski           : DLPNO-MP2, DLPNO-MP2 Gradient                 
  Shashank Vittal Rao    : ES-AILFT, MagRelax                            
  Christoph Reimann      : Effective Core Potentials                     
  Marius Retegan         : Local ZFS, SOC                                
  Christoph Riplinger    : Optimizer, TS searches, QM/MM, DLPNO-CCSD(T), (RO)-DLPNO pert. Triples 
  Michael Roemelt        : Original ROCIS implementation, recursive CI coupling coefficients
  Masaaki Saitow         : Open-shell DLPNO-CCSD energy and density      
  Barbara Sandhoefer     : DKH picture change effects                    
  Yorick L. A. Schmerwitz: GMF and freeze-and-release deltaSCF, NEB S-IDPP initial path                    
  Kantharuban Sivalingam : CASSCF convergence/infrastructure, NEVPT2, NEVPT3, NEVPT4(SD), FIC-MRCI and CEPA variants
  Bernardo de Souza      : ESD, SOC TD-DFT                               
  Georgi L. Stoychev     : AutoAux, RI-MP2 NMR, DLPNO-MP2 response, X2C  
  Van Anh Tran           : RI-MP2 g-tensors                              
  Willem Van den Heuvel  : Paramagnetic NMR                              
  Zikuan Wang            : NOTCH, Electric field optimization            
  Frank Wennmohs         : Technical directorship and infrastructure     
  Hang Xu                : AUTO-CI-Response properties                   
                                                                         
[FACCTs GmbH]                                                            
  Markus Bursch, Nicolas Foglia, Miquel Garcia-Rates, Ingolf Harden, Hagen Neugebauer, Anastasios Papadopoulos, 
  Christoph Riplinger, Bernardo de Souza, Georgi L. Stoychev                                                    
                                                                 
  APM, various basis sets, CI-OPT, improved COSX, DLPNO-Multilevel,           
  DOCKER, DRACO, updates on ESD, Fragmentator, GOAT, IRC, LR-CPCM, L-BFGS, MBIS, meta-GGA TD-DFT gradient, ML-optimized integration grids, 
  MM, NACMEs, nearIR, NEB, NEB-TS, NL-DFT gradient (VV10), 2- and 3-layer-ONIOM, interface openCOSMO-RS, QMMM,   
  Crystal-QMMM, RESP, rigid body optimization, SF, symmetry and pop. for TD-DFT, various functionals, SOLVATOR                                   
                                                                         
[Other institutions]                                                     
  V. Asgeirsson          : NEB                                           
  Christoph Bannwarth    : sTDA-DFT, sTD-DFT, PBEh-3c, B97-3c, D3        
  Giovanni Bistoni       : ETS/NOCV, ADLD/ADEX, COVALED                  
  Martin Brehm           : Molecular dynamics                            
  Ronald Cardenas        : ETS/NOCV                                      
  Martina Colucci        : COVALED                                       
  Sebastian Ehlert       : rSCAN, r2SCAN, r2SCAN-3c, D4, dhf basis sets  
  Marvin Friede          : D4 for Fr, Ra, Ac-Lr                          
  Lars Goerigk           : TD-DFT with DH, B97 family of functionals     
  Stefan Grimme          : VdW corrections, initial TS optimization, DFT functionals, gCP, sTDA/sTD-DF 
  Waldemar Hujo          : DFT-NL                                        
  H. Jonsson             : NEB                                           
  Holger Kruse           : gCP                                           
  Marcel Mueller         : wB97X-3c, vDZP basis set                      
  Hagen Neugebauer       : wr2SCAN, Native XTB                           
  Gianluca Regni         : ADLD/ADEX                                     
  Tobias Risthaus        : pre 6.0 range-separated hybrid DFT and stability analysis
  Lukas Wittmann         : regularized MP2, r2SCAN double-hybrids, wr2SCAN        
                                                                         
We gratefully acknowledge several colleagues who have allowed us to      
interface, adapt or use parts of their codes:                            
  Ed Valeev, F. Pavosevic, A. Kumar             : LibInt (2-el integral package), F12 methods 
  Garnet Chan, S. Sharma, J. Yang, R. Olivares  : DMRG                   
  Ulf Ekstrom                                   : XCFun DFT Library      
  Mihaly Kallay                                 : mrcc  (arbitrary order and MRCC methods)
  Frank Weinhold                                : gennbo (NPA and NBO analysis)           
  Simon Mueller                                 : openCOSMO-RS                            
  Christopher J. Cramer and Donald G. Truhlar   : smd solvation model                     
  S Lehtola, MJT Oliveira, MAL Marques          : LibXC Library                           
  Liviu Ungur et al                             : ANISO software                          


 Your calculation uses the libint2 library for the computation of 2-el integrals
 For citations please refer to: http://libint.valeyev.net

 Your ORCA version has been built with support for libXC version: 7.0.0
 For citations please refer to: https://libxc.gitlab.io

 This ORCA versions uses:
   CBLAS   interface :  Fast vector & matrix operations
   LAPACKE interface :  Fast linear algebra routines
   SCALAPACK package :  Parallel linear algebra routines
   Shared memory     :  Shared parallel matrices
   BLAS/LAPACK       :  OpenBLAS 0.3.29  USE64BITINT DYNAMIC_ARCH NO_AFFINITY Zen SINGLE_THREADED
        Core in use  :  Zen
   Copyright (c) 2011-2014, The OpenBLAS Project


  ***********************************
  * Starting time: Wed Sep 10 13:38:43 2025
  * Host name:     wyk-Server
  * Process ID:    2310701
  * Working dir.:  /home/wyk/Documents/code/openQDC/MGMR/singlepointcalc/107/react
  ***********************************

Your calculation utilizes the atom-pairwise dispersion correction
with the Becke-Johnson damping scheme (D3BJ)


Warning: RI is on but no J-basis has been assigned. Assigning Def2/J (nothing to worry about!)
================================================================================

----- Orbital basis set information -----
Your calculation utilizes the basis: def2-SVP
   F. Weigend and R. Ahlrichs, Phys. Chem. Chem. Phys. 7, 3297 (2005).

----- AuxJ basis set information -----
Your calculation utilizes the auxiliary basis: def2/J
   H-Rn: F. Weigend, Phys. Chem. Chem. Phys. 8, 1057 (2006).
   Fr-Lr: K. Eichkorn, F. Weigend, O. Treutler, R. Ahlrichs; Theor. Chem. Acc. 97, 119 (1997).

================================================================================
                                        WARNINGS
                       Please study these warnings very carefully!
================================================================================


================================================================================
                                       INPUT FILE
================================================================================
NAME = orca.inp
|  1> ! B3LYP def2-SVP d3 EnGrad 
|  2> %pal nprocs 6 end 
|  3> *xyz 0 1 
|  4> C   -1.89813118289482 -1.092913559e-05 0.67283724924393
|  5> H   -1.81927900990935 0.93008829790452 1.24395384192263
|  6> H   -1.81928862688787 -0.93013595094994 1.2439135205899
|  7> C   -2.08256815554012 1.714239596e-05 -0.64903672857735
|  8> H   -2.15946120446719 -0.93143891532983 -1.21930657836398
|  9> H   -2.15945182434704 0.93149707318612 -1.21926876809717
| 10> C   1.14145573095093 7.70337433e-06 0.58027956769003
| 11> F   1.29359293029581 -1.03134258717932 -0.19856865440786
| 12> F   1.29360134279964 1.03132816573377 -0.19860645000014
| 13> *
| 14> 
| 15>                          ****END OF INPUT****
================================================================================

                     *******************************
                     * Energy+Gradient Calculation *
                     *******************************

---------------------------------
CARTESIAN COORDINATES (ANGSTROEM)
---------------------------------
  C     -1.898131   -0.000011    0.672837
  H     -1.819279    0.930088    1.243954
  H     -1.819289   -0.930136    1.243914
  C     -2.082568    0.000017   -0.649037
  H     -2.159461   -0.931439   -1.219307
  H     -2.159452    0.931497   -1.219269
  C      1.141456    0.000008    0.580280
  F      1.293593   -1.031343   -0.198569
  F      1.293601    1.031328   -0.198606

----------------------------
CARTESIAN COORDINATES (A.U.)
----------------------------
  NO LB      ZA    FRAG     MASS         X           Y           Z
   0 C     6.0000    0    12.011   -3.586948   -0.000021    1.271478
   1 H     1.0000    0     1.008   -3.437939    1.757612    2.350732
   2 H     1.0000    0     1.008   -3.437957   -1.757702    2.350656
   3 C     6.0000    0    12.011   -3.935483    0.000032   -1.226502
   4 H     1.0000    0     1.008   -4.080790   -1.760164   -2.304156
   5 H     1.0000    0     1.008   -4.080773    1.760274   -2.304084
   6 C     6.0000    0    12.011    2.157039    0.000015    1.096569
   7 F     9.0000    0    18.998    2.444536   -1.948955   -0.375240
   8 F     9.0000    0    18.998    2.444552    1.948928   -0.375312

--------------------------------
INTERNAL COORDINATES (ANGSTROEM)
--------------------------------
 C      0   0   0     0.000000000000     0.00000000     0.00000000
 H      1   0   0     1.094292648133     0.00000000     0.00000000
 H      1   2   0     1.094292836739   116.41604239     0.00000000
 C      1   2   3     1.334678916784   121.79201111   179.90319362
 H      4   1   2     1.094865576234   121.70516512   179.88791994
 H      4   1   2     1.094865534616   121.70519343     0.21408898
 C      1   2   3     3.040995812490    86.78146687   275.20404753
 F      7   1   2     1.301319984598    97.76251765   185.23514223
 F      7   1   2     1.301319949835    97.76350422   291.46875171

---------------------------
INTERNAL COORDINATES (A.U.)
---------------------------
 C      0   0   0     0.000000000000     0.00000000     0.00000000
 H      1   0   0     2.067913415335     0.00000000     0.00000000
 H      1   2   0     2.067913771748   116.41604239     0.00000000
 C      1   2   3     2.522177629440   121.79201111   179.90319362
 H      4   1   2     2.068996092541   121.70516512   179.88791994
 H      4   1   2     2.068996013893   121.70519343     0.21408898
 C      1   2   3     5.746649260008    86.78146687   275.20404753
 F      7   1   2     2.459138383489    97.76251765   185.23514223
 F      7   1   2     2.459138317797    97.76350422   291.46875171

---------------------
BASIS SET INFORMATION
---------------------
There are 3 groups of distinct atoms

 Group   1 Type C   : 7s4p1d contracted to 3s2p1d pattern {511/31/1}
 Group   2 Type H   : 4s1p contracted to 2s1p pattern {31/1}
 Group   3 Type F   : 7s4p1d contracted to 3s2p1d pattern {511/31/1}

Atom   0C    basis set group =>   1
Atom   1H    basis set group =>   2
Atom   2H    basis set group =>   2
Atom   3C    basis set group =>   1
Atom   4H    basis set group =>   2
Atom   5H    basis set group =>   2
Atom   6C    basis set group =>   1
Atom   7F    basis set group =>   3
Atom   8F    basis set group =>   3
---------------------------------
AUXILIARY/J BASIS SET INFORMATION
---------------------------------
There are 3 groups of distinct atoms

 Group   1 Type C   : 12s5p4d2f1g contracted to 6s4p3d1f1g pattern {711111/2111/211/2/1}
 Group   2 Type H   : 5s2p1d contracted to 3s1p1d pattern {311/2/1}
 Group   3 Type F   : 12s5p4d2f1g contracted to 6s4p3d1f1g pattern {711111/2111/211/2/1}

Atom   0C    basis set group =>   1
Atom   1H    basis set group =>   2
Atom   2H    basis set group =>   2
Atom   3C    basis set group =>   1
Atom   4H    basis set group =>   2
Atom   5H    basis set group =>   2
Atom   6C    basis set group =>   1
Atom   7F    basis set group =>   3
Atom   8F    basis set group =>   3


           ************************************************************
           *        Program running with 6 parallel MPI-processes     *
           *              working on a common directory               *
           ************************************************************
------------------------------------------------------------------------------
                             ORCA STARTUP CALCULATIONS
                           -- RI-GTO INTEGRALS CHOSEN --
------------------------------------------------------------------------------
------------------------------------------------------------------------------
                   ___                                                        
                  /   \      - P O W E R E D   B Y -                         
                 /     \                                                     
                 |  |  |   _    _      __       _____    __    __             
                 |  |  |  | |  | |    /  \     |  _  \  |  |  /  |          
                  \  \/   | |  | |   /    \    | | | |  |  | /  /          
                 / \  \   | |__| |  /  /\  \   | |_| |  |  |/  /          
                |  |  |   |  __  | /  /__\  \  |    /   |      \           
                |  |  |   | |  | | |   __   |  |    \   |  |\   \          
                \     /   | |  | | |  |  |  |  | |\  \  |  | \   \       
                 \___/    |_|  |_| |__|  |__|  |_| \__\ |__|  \__/        
                                                                              
                      - O R C A' S   B I G   F R I E N D -                    
                                      &                                       
                       - I N T E G R A L  F E E D E R -                       
                                                                              
 v1 FN, 2020, v2 2021, v3 2022-2024                                           
------------------------------------------------------------------------------


----------------------
SHARK INTEGRAL PACKAGE
----------------------

Number of atoms                             ...      9
Number of basis functions                   ...     90
Number of shells                            ...     42
Maximum angular momentum                    ...      2
Integral batch strategy                     ... SHARK/LIBINT Hybrid
RI-J (if used) integral strategy            ... SPLIT-RIJ (Revised 2003 algorithm where possible)
Printlevel                                  ...      1
Contraction scheme used                     ... SEGMENTED contraction
Prescreening option                         ... SCHWARTZ
   Thresh                                   ... 2.500e-11
   Tcut                                     ... 2.500e-12
   Tpresel                                  ... 2.500e-12 
Coulomb Range Separation                    ... NOT USED
Exchange Range Separation                   ... NOT USED
Multipole approximations                    ... NOT USED
Finite Nucleus Model                        ... NOT USED
CABS basis                                  ... NOT available
Auxiliary Coulomb fitting basis             ... AVAILABLE
   # of basis functions in Aux-J            ...    289
   # of shells in Aux-J                     ...     95
   Maximum angular momentum in Aux-J        ...      4
Auxiliary J/K fitting basis                 ... NOT available
Auxiliary Correlation fitting basis         ... NOT available
Auxiliary 'external' fitting basis          ... NOT available

Checking pre-screening integrals            ... done (  0.0 sec) Dimension = 42
   => SHARK Basis and OBASIS are compatible. Storing Pre-screening
Shell pair information
Shell pair cut-off parameter TPreSel        ...   2.5e-12
Total number of shell pairs                 ...       903
Shell pairs after pre-screening             ...       866
Total number of primitive shell pairs       ...      3317
Primitive shell pairs kept                  ...      2403
          la=0 lb=0:    263 shell pairs
          la=1 lb=0:    308 shell pairs
          la=1 lb=1:    103 shell pairs
          la=2 lb=0:    107 shell pairs
          la=2 lb=1:     70 shell pairs
          la=2 lb=2:     15 shell pairs

Checking whether 4 symmetric matrices of dimension 90 fit in memory
:Max Core in MB      =   4096.00
 MB in use           =      4.37
 MB left             =   4091.63
 MB needed           =      0.12
 Data fit in memory  = YES
Calculating RI/J V-Matrix + Cholesky decomp.... done (  0.0 sec)
Calculating Nuclear repulsion               ... done (  0.0 sec) ENN=    156.013830821320 Eh

Diagonalization of the overlap matrix:
Smallest eigenvalue                        ... 3.770e-03
Time for diagonalization                   ...    0.001 sec
Threshold for overlap eigenvalues          ... 1.000e-07
Number of eigenvalues below threshold      ... 0
Time for construction of square roots      ...    0.001 sec
Total time needed                          ...    0.003 sec

-------------------
DFT GRID GENERATION
-------------------

General Integration Accuracy     IntAcc      ... 4.388
Radial Grid Type                 RadialGrid  ... OptM3 with GC (2021)
Angular Grid (max. ang.)         AngularGrid ... 4 (Lebedev-302)
Angular grid pruning method      GridPruning ... 4 (adaptive)
Weight generation scheme         WeightScheme... mBecke (2022)
Basis function cutoff            BFCut       ... 1.0000e-11
Integration weight cutoff        WCut        ... 1.0000e-14
Partially contracted basis set               ... off
Rotationally invariant grid construction     ... off
Angular grids for H and He will be reduced by one unit

Total number of grid points                  ...    43577
Total number of batches                      ...      683
Average number of points per batch           ...       63
Average number of grid points per atom       ...     4842

--------------------
COSX GRID GENERATION
--------------------

GRIDX 1
-------
General Integration Accuracy     IntAcc      ... 3.816
Radial Grid Type                 RadialGrid  ... OptM3 with GC (2021)
Angular Grid (max. ang.)         AngularGrid ... 1 (Lebedev-50)
Angular grid pruning method      GridPruning ... 4 (adaptive)
Weight generation scheme         WeightScheme... mBecke (2022)
Basis function cutoff            BFCut       ... 1.0000e-11
Integration weight cutoff        WCut        ... 1.0000e-14
Partially contracted basis set               ... on
Rotationally invariant grid construction     ... off
Angular grids for H and He will be reduced by one unit

Total number of grid points                  ...     5569
Total number of batches                      ...       50
Average number of points per batch           ...      111
Average number of grid points per atom       ...      619
UseSFitting                                  ... on

GRIDX 2
-------
General Integration Accuracy     IntAcc      ... 4.020
Radial Grid Type                 RadialGrid  ... OptM3 with GC (2021)
Angular Grid (max. ang.)         AngularGrid ... 2 (Lebedev-110)
Angular grid pruning method      GridPruning ... 4 (adaptive)
Weight generation scheme         WeightScheme... mBecke (2022)
Basis function cutoff            BFCut       ... 1.0000e-11
Integration weight cutoff        WCut        ... 1.0000e-14
Partially contracted basis set               ... on
Rotationally invariant grid construction     ... off
Angular grids for H and He will be reduced by one unit

Total number of grid points                  ...    12418
Total number of batches                      ...      102
Average number of points per batch           ...      121
Average number of grid points per atom       ...     1380
UseSFitting                                  ... on

GRIDX 3
-------
General Integration Accuracy     IntAcc      ... 4.338
Radial Grid Type                 RadialGrid  ... OptM3 with GC (2021)
Angular Grid (max. ang.)         AngularGrid ... 3 (Lebedev-194)
Angular grid pruning method      GridPruning ... 4 (adaptive)
Weight generation scheme         WeightScheme... mBecke (2022)
Basis function cutoff            BFCut       ... 1.0000e-11
Integration weight cutoff        WCut        ... 1.0000e-14
Partially contracted basis set               ... on
Rotationally invariant grid construction     ... off
Angular grids for H and He will be reduced by one unit

Total number of grid points                  ...    27410
Total number of batches                      ...      218
Average number of points per batch           ...      125
Average number of grid points per atom       ...     3046
UseSFitting                                  ... on
Grids setup in   0.6 sec
Initializing property integral containers    ... done (  0.0 sec)

SHARK setup successfully completed in   0.7 seconds

Maximum memory used throughout the entire STARTUP-calculation: 13.1 MB


           ************************************************************
           *        Program running with 6 parallel MPI-processes     *
           *              working on a common directory               *
           ************************************************************
-------------------------------------------------------------------------------
                                 ORCA GUESS
                   Start orbitals & Density for SCF / CASSCF
-------------------------------------------------------------------------------

------------
SCF SETTINGS
------------
Hamiltonian:
 Density Functional     Method          .... DFT(GTOs)
 Exchange Functional    Exchange        .... B88
   X-Alpha parameter    XAlpha          ....  0.666667
   Becke's b parameter  XBeta           ....  0.004200
 Correlation Functional Correlation     .... LYP
 LDA part of GGA corr.  LDAOpt          .... VWN-5
 Gradients option       PostSCFGGA      .... off
 Hybrid DFT is turned on
   Fraction HF Exchange ScalHFX         ....  0.200000
   Scaling of DF-GGA-X  ScalDFX         ....  0.720000
   Scaling of DF-GGA-C  ScalDFC         ....  0.810000
   Scaling of DF-LDA-C  ScalLDAC        ....  1.000000
   Perturbative correction              ....  0.000000
   NL short-range parameter             ....  4.800000
 RI-approximation to the Coulomb term is turned on
   Number of AuxJ basis functions       .... 289
   RIJ-COSX (HFX calculated with COS-X)).... on


General Settings:
 Integral files         IntName         .... orca
 Hartree-Fock type      HFTyp           .... RHF
 Total Charge           Charge          ....    0
 Multiplicity           Mult            ....    1
 Number of Electrons    NEL             ....   40
 Basis Dimension        Dim             ....   90
 Nuclear Repulsion      ENuc            ....    156.0138308213 Eh

Convergence Acceleration:
 AO-DIIS                CNVDIIS         .... on
   Start iteration      DIISMaxIt       ....    12
   Startup error        DIISStart       ....  0.200000
   # of expansion vecs  DIISMaxEq       ....     5
   Bias factor          DIISBfac        ....   1.050
   Max. coefficient     DIISMaxC        ....  10.000
 MO-DIIS                CNVKDIIS        .... off
 Trust-Rad. Augm. Hess. CNVTRAH         .... auto
   Auto Start mean grad. ratio tolernc. ....  1.125000
   Auto Start start iteration           ....    50
   Auto Start num. interpolation iter.  ....    10
   Max. Number of Micro iterations      ....    24
   Max. Number of Macro iterations      .... Maxiter - #DIIS iter
   Number of Davidson start vectors     ....     2
   Converg. threshold    (grad. norm)   ....   1.000e-05
   Grad. Scal. Fac. for Micro threshold ....   0.100
   Minimum threshold for Micro iter.    ....   1.000e-02
   NR start threshold (gradient norm)   ....   1.000e-04
   Initial trust radius                 ....   0.400
   Minimum AH scaling param. (alpha)    ....   1.000
   Maximum AH scaling param. (alpha)    .... 1000.000
   Quad. conv. algorithm                .... NR
   White noise on init. David. guess    .... on
   Maximum white noise                  ....   0.010
   Pseudo random numbers                .... off
   Inactive MOs                         .... canonical
   Orbital update algorithm             .... Taylor
   Preconditioner                       .... Diag
   Full preconditioner red. dimension   ....   250
 SOSCF                 CNVSOSCF           .... on
   Start iteration     SOSCFMaxIt         ....   150
   Startup grad/error  SOSCFStart         ....  0.003300
   Hessian update      SOSCFHessUp        .... L-BFGS
   Autom. constraints  SOSCFAutoConstrain .... off
 Level Shifting         CNVShift        .... on
   Level shift para.    LevelShift      ....    0.2500
   Turn off err/grad.   ShiftErr        ....    0.0010
 Zerner damping         CNVZerner       .... off
 Static damping         CNVDamp         .... on
   Fraction old density DampFac         ....    0.7000
   Max. Damping (<1)    DampMax         ....    0.9800
   Min. Damping (>=0)   DampMin         ....    0.0000
   Turn off err/grad.   DampErr         ....    0.1000

SCF Procedure:
 Maximum # iterations   MaxIter         ....   125
 SCF integral mode      SCFMode         .... Direct
   Integral package                     .... SHARK and LIBINT hybrid scheme
 Reset frequency        DirectResetFreq ....    20
 Integral Threshold     Thresh          ....  2.500e-11 Eh
 Primitive CutOff       TCut            ....  2.500e-12 Eh

Convergence Tolerance:
 Convergence Check Mode ConvCheckMode   .... Total+1el-Energy
 Convergence forced     ConvForced      .... 0
 Energy Change          TolE            ....  1.000e-08 Eh
 1-El. energy change                    ....  1.000e-05 Eh
 Orbital Gradient       TolG            ....  1.000e-05
 Orbital Rotation angle TolX            ....  1.000e-05
 DIIS Error             TolErr          ....  5.000e-07

------------------------------
INITIAL GUESS: MODEL POTENTIAL
------------------------------
Loading Hartree-Fock densities                     ... done
Calculating cut-offs                               ... done
Initializing the effective Hamiltonian             ... done
Setting up the integral package (SHARK)            ... done
Starting the Coulomb interaction                   ... done (   0.0 sec)
Making the grid                                    ... done (   0.1 sec)
Mapping shells                                     ... done
Starting the XC term evaluation                    ... done (   0.0 sec)
  promolecular density results
     # of electrons  =     39.998679778
     EX              =    -36.605280234
     EC              =     -1.380264399
     EX+EC           =    -37.985544634
Transforming the Hamiltonian                       ... done (   0.0 sec)
Diagonalizing the Hamiltonian                      ... done (   0.0 sec)
Back transforming the eigenvectors                 ... done (   0.0 sec)
Now organizing SCF variables                       ... done
                      ------------------
                      INITIAL GUESS DONE (   0.1 sec)
                      ------------------
             **** ENERGY FILE WAS UPDATED (orca.en.tmp) ****
Finished Guess after   0.2 sec
Maximum memory used throughout the entire GUESS-calculation: 6.7 MB


           ************************************************************
           *        Program running with 6 parallel MPI-processes     *
           *              working on a common directory               *
           ************************************************************

-------------------------------------------------------------------------------------------
                                      ORCA LEAN-SCF
                              memory conserving SCF solver
-------------------------------------------------------------------------------------------

----------------------------------------D-I-I-S--------------------------------------------
Iteration    Energy (Eh)           Delta-E    RMSDP     MaxDP     DIISErr   Damp  Time(sec)
-------------------------------------------------------------------------------------------
               ***  Starting incremental Fock matrix formation  ***
    1    -315.7951639952152618     0.00e+00  8.45e-03  6.26e-02  1.56e-01  0.700   0.3
    2    -315.8413051233532087    -4.61e-02  5.72e-03  4.04e-02  8.49e-02  0.700   0.2
                               ***Turning on AO-DIIS***
    3    -315.8602445038715132    -1.89e-02  2.37e-03  1.36e-02  3.49e-02  0.700   0.2
    4    -315.8713816603359419    -1.11e-02  4.26e-03  3.51e-02  1.73e-02  0.000   0.2
    5    -315.8956477102633471    -2.43e-02  7.17e-04  3.57e-03  4.60e-03  0.000   0.2
                              *** Initializing SOSCF ***
---------------------------------------S-O-S-C-F--------------------------------------
Iteration    Energy (Eh)           Delta-E    RMSDP     MaxDP     MaxGrad    Time(sec)
--------------------------------------------------------------------------------------
    6    -315.8957463849394571    -9.87e-05  2.40e-04  9.86e-04  1.47e-03     0.2
               *** Restarting incremental Fock matrix formation ***
    7    -315.8957337915559265     1.26e-05  1.56e-04  7.48e-04  2.23e-04     0.3
    8    -315.8957345644333827    -7.73e-07  5.71e-05  3.51e-04  2.86e-04     0.3
    9    -315.8957352647036032    -7.00e-07  3.68e-05  1.83e-04  1.02e-04     0.3
   10    -315.8957353167123756    -5.20e-08  1.37e-05  1.26e-04  4.38e-05     0.3
   11    -315.8957353475876744    -3.09e-08  7.89e-06  4.62e-05  1.75e-05     0.2
   12    -315.8957353510421626    -3.45e-09  3.64e-06  3.18e-05  1.30e-05     0.3
                 **** Energy Check signals convergence ****

               *****************************************************
               *                     SUCCESS                       *
               *           SCF CONVERGED AFTER  12 CYCLES          *
               *****************************************************

Recomputing exchange energy using gridx3       ... done (    0.411 sec)
Old exchange energy                            :     -7.375119251 Eh
New exchange energy                            :     -7.375112350 Eh
Exchange energy change after final integration :      0.000006901 Eh
Total energy after final integration           :   -315.895728451 Eh
             **** ENERGY FILE WAS UPDATED (orca.en.tmp) ****

----------------
TOTAL SCF ENERGY
----------------

Total Energy       :       -315.89572845104766 Eh           -8595.95978 eV

Components:
Nuclear Repulsion  :        156.01383082132023 Eh            4245.35217 eV
Electronic Energy  :       -471.90956617330920 Eh          -12841.31214 eV
One Electron Energy:       -743.14007967507473 Eh          -20221.86963 eV
Two Electron Energy:        271.23051350176553 Eh            7380.55749 eV

Virial components:
Potential Energy   :       -629.61766663326853 Eh          -17132.76772 eV
Kinetic Energy     :        313.72193818222081 Eh            8536.80794 eV
Virial Ratio       :          2.00692903493273

DFT components:
N(Alpha)           :       20.000011583117 electrons
N(Beta)            :       20.000011583117 electrons
N(Total)           :       40.000023166234 electrons
E(X)               :      -29.350359244725 Eh       
E(C)               :       -1.631810581509 Eh       
E(XC)              :      -30.982169826234 Eh       

---------------
SCF CONVERGENCE
---------------

  Last Energy change         ...    3.4545e-09  Tolerance :   1.0000e-08
  Last MAX-Density change    ...    3.1846e-05  Tolerance :   1.0000e-07
  Last RMS-Density change    ...    3.6414e-06  Tolerance :   5.0000e-09
  Last DIIS Error            ...    1.4695e-03  Tolerance :   5.0000e-07
  Last Orbital Gradient      ...    1.2987e-05  Tolerance :   1.0000e-05
  Last Orbital Rotation      ...    1.8314e-05  Tolerance :   1.0000e-05


----------------
ORBITAL ENERGIES
----------------

  NO   OCC          E(Eh)            E(eV) 
   0   2.0000     -24.752144      -673.5401 
   1   2.0000     -24.752117      -673.5393 
   2   2.0000     -10.369933      -282.1802 
   3   2.0000     -10.194006      -277.3930 
   4   2.0000     -10.193229      -277.3719 
   5   2.0000      -1.311043       -35.6753 
   6   2.0000      -1.231687       -33.5159 
   7   2.0000      -0.755458       -20.5571 
   8   2.0000      -0.688384       -18.7319 
   9   2.0000      -0.592668       -16.1273 
  10   2.0000      -0.575170       -15.6512 
  11   2.0000      -0.546553       -14.8725 
  12   2.0000      -0.538034       -14.6406 
  13   2.0000      -0.471753       -12.8371 
  14   2.0000      -0.466477       -12.6935 
  15   2.0000      -0.442131       -12.0310 
  16   2.0000      -0.424278       -11.5452 
  17   2.0000      -0.357311        -9.7229 
  18   2.0000      -0.299818        -8.1585 
  19   2.0000      -0.270744        -7.3673 
  20   0.0000      -0.074452        -2.0260 
  21   0.0000       0.006560         0.1785 
  22   0.0000       0.081556         2.2192 
  23   0.0000       0.099445         2.7060 
  24   0.0000       0.113367         3.0849 
  25   0.0000       0.168196         4.5768 
  26   0.0000       0.192538         5.2392 
  27   0.0000       0.198969         5.4142 
  28   0.0000       0.318351         8.6628 
  29   0.0000       0.349608         9.5133 
  30   0.0000       0.393823        10.7165 
*Only the first 10 virtual orbitals were printed.

                    ********************************
                    * MULLIKEN POPULATION ANALYSIS *
                    ********************************

-----------------------
MULLIKEN ATOMIC CHARGES
-----------------------
   0 C :   -0.048557
   1 H :    0.036997
   2 H :    0.036996
   3 C :   -0.073113
   4 H :    0.033309
   5 H :    0.033309
   6 C :    0.191263
   7 F :   -0.105102
   8 F :   -0.105101
Sum of atomic charges:   -0.0000000

--------------------------------
MULLIKEN REDUCED ORBITAL CHARGES
--------------------------------
  0 C s       :     3.124667  s :     3.124667
      pz      :     0.974065  p :     2.896422
      px      :     0.968208
      py      :     0.954149
      dz2     :     0.006907  d :     0.027468
      dxz     :     0.005460
      dyz     :     0.012318
      dx2y2   :     0.002534
      dxy     :     0.000250

  1 H s       :     0.939756  s :     0.939756
      pz      :     0.006930  p :     0.023247
      px      :     0.004502
      py      :     0.011815

  2 H s       :     0.939757  s :     0.939757
      pz      :     0.006929  p :     0.023247
      px      :     0.004502
      py      :     0.011816

  3 C s       :     3.134636  s :     3.134636
      pz      :     0.982093  p :     2.911188
      px      :     0.982594
      py      :     0.946501
      dz2     :     0.006866  d :     0.027289
      dxz     :     0.005264
      dyz     :     0.012416
      dx2y2   :     0.002521
      dxy     :     0.000222

  4 H s       :     0.943500  s :     0.943500
      pz      :     0.006826  p :     0.023191
      px      :     0.004536
      py      :     0.011829

  5 H s       :     0.943500  s :     0.943500
      pz      :     0.006826  p :     0.023191
      px      :     0.004536
      py      :     0.011830

  6 C s       :     3.741574  s :     3.741574
      pz      :     0.974531  p :     1.948396
      px      :     0.416702
      py      :     0.557162
      dz2     :     0.017796  d :     0.118768
      dxz     :     0.011811
      dyz     :     0.048332
      dx2y2   :     0.022418
      dxy     :     0.018411

  7 F s       :     3.887016  s :     3.887016
      pz      :     1.762659  p :     5.209256
      px      :     1.792422
      py      :     1.654175
      dz2     :     0.001312  d :     0.008830
      dxz     :     0.000710
      dyz     :     0.003325
      dx2y2   :     0.001923
      dxy     :     0.001560

  8 F s       :     3.887016  s :     3.887016
      pz      :     1.762644  p :     5.209256
      px      :     1.792421
      py      :     1.654191
      dz2     :     0.001312  d :     0.008829
      dxz     :     0.000710
      dyz     :     0.003325
      dx2y2   :     0.001923
      dxy     :     0.001560



                     *******************************
                     * LOEWDIN POPULATION ANALYSIS *
                     *******************************

----------------------
LOEWDIN ATOMIC CHARGES
----------------------
   0 C :   -0.044895
   1 H :    0.027124
   2 H :    0.027124
   3 C :   -0.049163
   4 H :    0.025599
   5 H :    0.025599
   6 C :   -0.018276
   7 F :    0.003444
   8 F :    0.003444

-------------------------------
LOEWDIN REDUCED ORBITAL CHARGES
-------------------------------
  0 C s       :     2.895969  s :     2.895969
      pz      :     1.080353  p :     3.078978
      px      :     0.951410
      py      :     1.047215
      dz2     :     0.019853  d :     0.069947
      dxz     :     0.010750
      dyz     :     0.032498
      dx2y2   :     0.006208
      dxy     :     0.000637

  1 H s       :     0.906390  s :     0.906390
      pz      :     0.018333  p :     0.066485
      px      :     0.013587
      py      :     0.034565

  2 H s       :     0.906390  s :     0.906390
      pz      :     0.018332  p :     0.066485
      px      :     0.013587
      py      :     0.034566

  3 C s       :     2.893985  s :     2.893985
      pz      :     1.081629  p :     3.085485
      px      :     0.959630
      py      :     1.044227
      dz2     :     0.019795  d :     0.069693
      dxz     :     0.010320
      dyz     :     0.032824
      dx2y2   :     0.006153
      dxy     :     0.000601

  4 H s       :     0.907955  s :     0.907955
      pz      :     0.018099  p :     0.066446
      px      :     0.013945
      py      :     0.034402

  5 H s       :     0.907955  s :     0.907955
      pz      :     0.018098  p :     0.066446
      px      :     0.013945
      py      :     0.034403

  6 C s       :     3.503958  s :     3.503958
      pz      :     1.138310  p :     2.274507
      px      :     0.450764
      py      :     0.685433
      dz2     :     0.031708  d :     0.239811
      dxz     :     0.017096
      dyz     :     0.098637
      dx2y2   :     0.056637
      dxy     :     0.035733

  7 F s       :     3.731404  s :     3.731404
      pz      :     1.790544  p :     5.250826
      px      :     1.769407
      py      :     1.690876
      dz2     :     0.002088  d :     0.014326
      dxz     :     0.000779
      dyz     :     0.006525
      dx2y2   :     0.003300
      dxy     :     0.001635

  8 F s       :     3.731404  s :     3.731404
      pz      :     1.790532  p :     5.250826
      px      :     1.769406
      py      :     1.690888
      dz2     :     0.002088  d :     0.014326
      dxz     :     0.000779
      dyz     :     0.006525
      dx2y2   :     0.003299
      dxy     :     0.001634



                      *****************************
                      * MAYER POPULATION ANALYSIS *
                      *****************************

  NA   - Mulliken gross atomic population
  ZA   - Total nuclear charge
  QA   - Mulliken gross atomic charge
  VA   - Mayer's total valence
  BVA  - Mayer's bonded valence
  FA   - Mayer's free valence

  ATOM       NA         ZA         QA         VA         BVA        FA
  0 C      6.0486     6.0000    -0.0486     4.0178     4.0178    -0.0000
  1 H      0.9630     1.0000     0.0370     0.9770     0.9770    -0.0000
  2 H      0.9630     1.0000     0.0370     0.9770     0.9770    -0.0000
  3 C      6.0731     6.0000    -0.0731     4.0207     4.0207     0.0000
  4 H      0.9667     1.0000     0.0333     0.9749     0.9749     0.0000
  5 H      0.9667     1.0000     0.0333     0.9749     0.9749     0.0000
  6 C      5.8087     6.0000     0.1913     2.5217     2.5217    -0.0000
  7 F      9.1051     9.0000    -0.1051     1.2634     1.2634    -0.0000
  8 F      9.1051     9.0000    -0.1051     1.2634     1.2634    -0.0000

  Mayer bond orders larger than 0.100000
B(  0-C ,  1-H ) :   0.9621 B(  0-C ,  2-H ) :   0.9621 B(  0-C ,  3-C ) :   2.0447 
B(  3-C ,  4-H ) :   0.9625 B(  3-C ,  5-H ) :   0.9625 B(  6-C ,  7-F ) :   1.2246 
B(  6-C ,  8-F ) :   1.2246 

-------
TIMINGS
-------

Total SCF time: 0 days 0 hours 0 min 3 sec 

Total time                  ....       3.823 sec
Sum of individual times     ....       3.541 sec  ( 92.6%)

SCF preparation             ....       0.153 sec  (  4.0%)
Fock matrix formation       ....       3.213 sec  ( 84.1%)
  Startup                   ....       0.004 sec  (  0.1% of F)
  Split-RI-J                ....       0.249 sec  (  7.8% of F)
  Chain of spheres X        ....       2.368 sec  ( 73.7% of F)
  XC integration            ....       0.734 sec  ( 22.8% of F)
    XC Preparation          ....       0.000 sec  (  0.0% of XC)
    Basis function eval.    ....       0.201 sec  ( 27.4% of XC)
    Density eval.           ....       0.089 sec  ( 12.1% of XC)
    XC-Functional eval.     ....       0.056 sec  (  7.7% of XC)
    XC-Potential eval.      ....       0.093 sec  ( 12.7% of XC)
Diagonalization             ....       0.000 sec  (  0.0%)
Density matrix formation    ....       0.038 sec  (  1.0%)
Total Energy calculation    ....       0.013 sec  (  0.3%)
Population analysis         ....       0.014 sec  (  0.4%)
Orbital Transformation      ....       0.011 sec  (  0.3%)
Orbital Orthonormalization  ....       0.000 sec  (  0.0%)
DIIS solution               ....       0.053 sec  (  1.4%)
SOSCF solution              ....       0.046 sec  (  1.2%)
Finished LeanSCF after   3.8 sec

Maximum memory used throughout the entire LEANSCF-calculation: 7.8 MB


-------------------------------------------------------------------------------
                          DFT DISPERSION CORRECTION                            
                                                                               
                              DFTD3 V3.1  Rev 1                                
                          USING Becke-Johnson damping                          
-------------------------------------------------------------------------------
The B3LYP functional is recognized
Active option DFTDOPT                   ...         4   

molecular C6(AA) [au] = 762.513480 


            DFT-D V3
 parameters
 s6 scaling factor         :     1.0000 
 a1 scaling factor         :     0.3981 
 s8 scaling factor         :     1.9889 
 a2 scaling factor         :     4.4211 
 ad hoc parameters k1-k3   :    16.0000     1.3333    -4.0000 

 Edisp/kcal,au: -4.816291481566  -0.007675248210 
 E6   /kcal   :  -2.359045815 
 E8   /kcal   :  -2.457245667 
 % E8         :  51.019455029 

-------------------------   ----------------
Dispersion correction           -0.007675248
-------------------------   ----------------


-------------------------   --------------------
FINAL SINGLE POINT ENERGY      -315.903403699258
-------------------------   --------------------



           ************************************************************
           *        Program running with 6 parallel MPI-processes     *
           *              working on a common directory               *
           ************************************************************
------------------------------------------------------------------------------
                         ORCA SCF GRADIENT CALCULATION
------------------------------------------------------------------------------

Nuc. rep. gradient        (SHARK) ... done (  0.0 sec)
HCore & Overlap gradient  (SHARK) ... done (  0.0 sec)
Split-RIJ-J gradient      (SHARK) ... done (  0.2 sec)
done (  1.6 sec)
XC gradient                       ... done (  0.3 sec)
Dispersion correction             ... done (  0.0 sec)

-------------------
DISPERSION GRADIENT
-------------------

   1   C   :   -0.000396986   -0.000000002    0.000123099
   2   H   :   -0.000141951    0.000070999    0.000124224
   3   H   :   -0.000141952   -0.000071004    0.000124220
   4   C   :   -0.000414534    0.000000003   -0.000164345
   5   H   :   -0.000110640   -0.000054001   -0.000118898
   6   H   :   -0.000110641    0.000054006   -0.000118896
   7   C   :    0.000692829    0.000000001    0.000085237
   8   F   :    0.000311937   -0.000100452   -0.000027319
   9   F   :    0.000311937    0.000100450   -0.000027321

Difference to translation invariance:
           :   -0.0000000000   -0.0000000000   -0.0000000000

Difference to rotation invariance:
           :    0.0000000000   -0.0000000000    0.0000000000

Norm of the Dispersion gradient    ...    0.0011022667
RMS gradient                       ...    0.0002121313
MAX gradient                       ...    0.0006928287

------------------
CARTESIAN GRADIENT
------------------

   1   C   :    0.000032191    0.000000215   -0.000069885
   2   H   :    0.000022543    0.000002326   -0.000022158
   3   H   :    0.000022494   -0.000002528   -0.000022177
   4   C   :    0.000010049    0.000000019    0.000075944
   5   H   :   -0.000024337    0.000011873   -0.000001187
   6   H   :   -0.000024292   -0.000011956   -0.000001183
   7   C   :   -0.000102811    0.000000111   -0.000270841
   8   F   :    0.000032117   -0.000313035    0.000155624
   9   F   :    0.000032046    0.000312974    0.000155862

Difference to translation invariance:
           :    0.0000000000    0.0000000000   -0.0000000001

Difference to rotation invariance:
           :    0.0000004143   -0.0001814080    0.0000002569

Norm of the Cartesian gradient     ...    0.0005879673
RMS gradient                       ...    0.0001131544
MAX gradient                       ...    0.0003130355

-------
TIMINGS
-------

Total SCF gradient time     ....        2.079 sec

Densities                   ....       0.000 sec  (  0.0%)
One electron gradient       ....       0.018 sec  (  0.9%)
RI-J Coulomb gradient       ....       0.151 sec  (  7.2%)
COSX gradient               ....       1.569 sec  ( 75.5%)
XC gradient                 ....       0.302 sec  ( 14.5%)

Maximum memory used throughout the entire SCFGRAD-calculation: 26.6 MB


           ************************************************************
           *        Program running with 6 parallel MPI-processes     *
           *              working on a common directory               *
           ************************************************************

------------------------------------------------------------------------------
                              ORCA PROPERTY CALCULATIONS
------------------------------------------------------------------------------

GBWName                                 ... orca.gbw
Number of atoms                         ...      9
Number of basis functions               ...     90
Max core memory                         ...   4096 MB

Electric properties:
Dipole moment                           ... YES
Quadrupole moment                       ...  NO
Static polarizability (Dipole/Dipole)   ...  NO
Static polarizability (Dipole/Quad.)    ...  NO
Static polarizability (Quad./Quad.)     ...  NO
Static polarizability (Velocity)        ...  NO
Static hyperpolarizability              ...  NO

Atomic electric properties:
Dipole moment                           ...  NO
Quadrupole moment                       ...  NO
Static polarizability                   ...  NO

Choice of electric origin               ... Center of mass
Position of electric origin             ...     0.170141    -0.000002    -0.005816

General magnetic properties:
Magnetizability                         ...  NO

EPR properties:
g-Tensor (aka g-matrix)                 ...  NO
Zero-Field splitting spin-orbit         ...  NO
Zero-field splitting spin-spin          ...  NO
Hyperfine couplings                     ...  NO (   0 nuclei)
Quadrupole couplings                    ...  NO (   0 nuclei)
Contact density                         ...  NO (   0 nuclei)

NMR properties:
Chemical shifts                         ...  NO (   0 nuclei)
Spin-rotation constants                 ...  NO (   0 nuclei)
Spin-spin couplings                     ...  NO (   0 nuclei,    0 pairs)

Choice of magnetic origin               ... GIAO
Position of magnetic origin             ...     0.000000     0.000000     0.000000

Properties with geometric perturbations:
SCF Hessian                             ...  NO
IR spectrum                             ...  NO
VCD spectrum                            ...  NO
X-ray spectroscopy properties:
SCF XES/XAS/RIXS spectra                ...  NO

SCF SOC stabilization energy            ...  NO
Diagonal Born-Oppenheimer correction    ...  NO

-------------
DIPOLE MOMENT
-------------

Method             : SCF
Type of density    : Electron Density
Multiplicity       :   1
Irrep              :   0
Energy             :  -315.8957284510476597 Eh
Basis              : AO
                                X                 Y                 Z
Electronic contribution:      9.938572963      -0.000030726      -0.693299736
Nuclear contribution   :    -10.033677475       0.000025559       0.420087078
                        -----------------------------------------
Total Dipole Moment    :     -0.095104511      -0.000005167      -0.273212658
                        -----------------------------------------
Magnitude (a.u.)       :      0.289292282
Magnitude (Debye)      :      0.735322543



--------------------
Rotational spectrum 
--------------------
 
Rotational constants in cm-1:             0.255173             0.079444             0.072057 
Rotational constants in MHz :          7649.901981          2381.665944          2160.222843 

Dipole components along the rotational axes: 
x,y,z [a.u.] :    -0.094872    -0.000006    -0.273293 
x,y,z [Debye]:    -0.241146    -0.000016    -0.694657 

 

Dipole moment calculation done in   0.0 sec 

Maximum memory used throughout the entire PROP-calculation: 4.7 MB

--------------------------------
SUGGESTED CITATIONS FOR THIS RUN
--------------------------------

Below you find a list of papers that are relevant to this ORCA run
We neither can nor want to force you to cite these papers, but we appreciate if you do
You receive ORCA, which is the product of decades of hard work by many enthusiastic individuals, for free
The only thing we kindly ask in return is that you cite our papers,
We deeply appreciate it, if you show your appreciation for ORCA by not just citing the generic ORCA reference.

Please note that relegating all ORCA citations to the supporting information does *not* help us.
SI sections are not indexed - citations you put there will not count into any citation statistics
But we need these citations in order to attract the funding resources that allow us to do what we are doing

Therefore, if you are a happy ORCA user, please consider citing a few of the papers listed below in the main body of your paper

In addition to the list printed below, the program has created the file orca.bibtex that contains the list in bibtex format
You can import this file easily into all common literature databanks and citation aid programs


List of essential papers. We consider these as the minimum necessary citations

  1. Neese, F.
     Software update: the ORCA program system, version 6.0
     WIRES Comput. Molec. Sci. 2025 15(1), e70019
     doi.org/10.1002/wcms.7019

List of papers to cite with high priority. The work reported in these papers was absolutely
necessary for this run to complete.
Our perspective: the developers of density functionals and basis sets usually get cited in chemistry papers
Good! But without the algorithms to do something with them, the functionals or basis sets would not do anything.
Hence, in our opinion, the algorithm design and method developments papers are equally worthy of getting cited

  1. Neese, F.
     An improvement of the resolution of the identity approximation for the formation of the Coulomb matrix
     J. Comp. Chem. 2003 24(14), 1740-1747
     doi.org/10.1002/jcc.10318
  2. Neese, F.; Wennmohs, F.; Hansen, A.; Becker, U.
     Efficient, approximate and parallel Hartree-Fock and hybrid DFT calculations. A 'chain-of-spheres' algorithm for the Hartree-Fock exchange
     Chem. Phys. 2009 356(1-3), 98-109
     doi.org/10.1016/j.chemphys.2008.10.036
  3. Grimme, S.; Antony, J.; Ehrlich, S.; Krieg, H.
     A consistent and accurate ab initio parametrization of density functional dispersion correction (DFT-D) for the 94 elements H-Pu
     J. Chem. Phys. 2010 132 , 154104
     doi.org/10.1063/1.3382344
  4. Grimme, S.; Ehrlich, S.; Goerigk, L.
     Effect of the damping function in dispersion corrected density functional theory
     J. Comput. Chem. 2011 32(7), 1456-1465
     doi.org/10.1002/jcc.21759
  5. Helmich-Paris, B.; de Souza, B.; Neese, F.; Izsák, R.
     An improved chain of spheres for exchange algorithm
     J. Chem. Phys. 2021 155(10), 104109
     doi.org/10.1063/5.0058766
  6. Neese, F.
     The SHARK Integral Generation and Digestion System
     J. Comp. Chem. 2022 44(3), 381
     doi.org/10.1002/jcc.26942

List of suggested additional citations. These are papers that are important in the 'surrounding' of 
of this run, or papers that preceded the highly important papers. If you like your results we are grateful for a citation.

  1. Izsak, R.; Neese, F.
     An overlap fitted chain of spheres exchange method
     J. Chem. Phys. 2011 135 , 144105
     doi.org/10.1063/1.3646921
  2. Izsak, R.; Hansen, A.; Neese, F.
     The resolution of identity and chain of spheres approximations for the LPNO-CCSD singles Fock term
     Molec. Phys. 2012 110 , 2413-2417
     doi.org/10.1080/00268976.2012.687466
  3. Neese, F.
     The ORCA program system
     WIRES Comput. Molec. Sci. 2012 2(1), 73-78
     doi.org/10.1002/wcms.81
  4. Izsak, R.; Neese, F.; Klopper, W.
     Robust fitting techniques in the chain of spheres approximation to the Fock exchange: The role of the complementary space
     J. Chem. Phys. 2013 139 , 
     doi.org/10.1063/1.4819264
  5. Neese, F.
     Software update: the ORCA program system, version 4.0
     WIRES Comput. Molec. Sci. 2018 8(1), 1-6
     doi.org/10.1002/wcms.1327
  6. Neese, F.; Wennmohs, F.; Becker, U.; Riplinger, C.
     The ORCA quantum chemistry program package
     J. Chem. Phys. 2020 152(22), 224108
     doi.org/10.1063/5.0004608
  7. Neese, F.
     Software update: The ORCA program system—Version 5.0
     WIRES Comput. Molec. Sci. 2022 12(1), e1606
     doi.org/10.1002/wcms.1606

List of optional additional citations

  1. Neese, F.
     Approximate second-order SCF convergence for spin unrestricted wavefunctions
     Chem. Phys. Lett. 2000 325(1-3), 93-98
     doi.org/10.1016/s0009-2614(00)00662-x

Timings for individual modules:

Sum of individual times          ...        8.828 sec (=   0.147 min)
Startup calculation              ...        1.105 sec (=   0.018 min)  12.5 %
SCF iterations                   ...        4.733 sec (=   0.079 min)  53.6 %
Property calculations            ...        0.454 sec (=   0.008 min)   5.1 %
SCF Gradient evaluation          ...        2.536 sec (=   0.042 min)  28.7 %
                             ****ORCA TERMINATED NORMALLY****
TOTAL RUN TIME: 0 days 0 hours 0 minutes 9 seconds 397 msec
