
                                 *****************
                                 * O   R   C   A *
                                 *****************

                                            #,                                       
                                            ###                                      
                                            ####                                     
                                            #####                                    
                                            ######                                   
                                           ########,                                 
                                     ,,################,,,,,                         
                               ,,#################################,,                 
                          ,,##########################################,,             
                       ,#########################################, ''#####,          
                    ,#############################################,,   '####,        
                  ,##################################################,,,,####,       
                ,###########''''           ''''###############################       
              ,#####''   ,,,,##########,,,,          '''####'''          '####       
            ,##' ,,,,###########################,,,                        '##       
           ' ,,###''''                  '''############,,,                           
         ,,##''                                '''############,,,,        ,,,,,,###''
      ,#''                                            '''#######################'''  
     '                                                          ''''####''''         
             ,#######,   #######,   ,#######,      ##                                
            ,#'     '#,  ##    ##  ,#'     '#,    #''#        ,####,    ,#,          
            ##       ##  ##   ,#'  ##            #'  '#       #'       ,# #          
            ##       ##  #######   ##           ,######,      #####,      #          
            '#,     ,#'  ##    ##  '#,     ,#' ,#      #,     #,   #      #          
             '#######'   ##     ##  '#######'  #'      '#     '####' #    #          



                #########################################################
                #                        -***-                          #
                #          Department of theory and spectroscopy        #
                #                                                       #
                #                      Frank Neese                      #
                #                                                       #
                #     Directorship, Architecture, Infrastructure        #
                #                    SHARK, DRIVERS                     #
                #        Core code/Algorithms in most modules           #
                #                                                       #
                #        Max Planck Institute fuer Kohlenforschung      #
                #                Kaiser Wilhelm Platz 1                 #
                #                 D-45470 Muelheim/Ruhr                 #
                #                      Germany                          #
                #                                                       #
                #                  All rights reserved                  #
                #                        -***-                          #
                #########################################################


                         Program Version 6.1.0  -  RELEASE   -
                                (GIT: $679e74b$)
                          ($2025-06-10 18:02:51 +0200$)


 With contributions from (in alphabetic order):
[Max-Planck-Institut fuer Kohlenforschung]                               
  Daniel Aravena         : Magnetic Suceptibility                        
  Michael Atanasov       : Ab Initio Ligand Field Theory (pilot matlab implementation)
  Alexander A. Auer      : GIAO ZORA, VPT2 properties, NMR spectrum      
  Ute Becker             : All parallelization in ORCA, NUMFREQ, NUMCALC 
  Giovanni Bistoni       : ED, misc. LED, open-shell LED, HFLD           
  Dmytro Bykov           : pre 5.0 version of the SCF Hessian            
  Marcos Casanova-Páez   : Triplet and SCS-CIS(D). UHF-(DLPNO)-IP/EA/STEOM-CCSD. UHF-CVS-IP/STEOM-CCSD   
  Vijay G. Chilkuri      : MRCI spin determinant printing, contributions to CSF-ICE 
  Pauline Colinet        : FMM embedding                                 
  Dipayan Datta          : RHF DLPNO-CCSD density                        
  Achintya Kumar Dutta   : EOM-CC, STEOM-CC                              
  Nicolas Foglia         : Exact transition moments, OPA infrastructure, MCD improvements    
  Dmitry Ganyushin       : Spin-Orbit,Spin-Spin,Magnetic field MRCI      
  Miquel Garcia-Rates    : C-PCM and meta-GGA Hessian, CCSD/C-PCM, Gaussian charge scheme 
  Tiago L. C. Gouveia    : GS-ROHF, GS-ROCIS                             
  Yang Guo               : DLPNO-NEVPT2, F12-NEVPT2, CIM, IAO-localization        
  Andreas Hansen         : Spin unrestricted coupled pair/coupled cluster methods 
  Ingolf Harden          : AUTO-CI MPn and infrastructure                
  Benjamin Helmich-Paris : MC-RPA, TRAH-(SCF,CASSCF), AVAS, COSX integrals, SCF dyn. polar., MC-PDFT, srDFT 
  Lee Huntington         : MR-EOM, pCC                                   
  Robert Izsak           : Overlap fitted RIJCOSX, COSX-SCS-MP3, EOM     
  Riya Kayal             : Wick's Theorem for AUTO-CI, AUTO-CI UHF-CCSDT 
  Emily Kempfer          : AUTO-CI RHF CISDT and CCSDT, approximate NEVPT4
  Christian Kollmar      : KDIIS, OOCD, Brueckner-CCSD(T), CCSD density, CASPT2, CASPT2-K, improved NEVPT2 
  Axel Koslowski         : Symmetry handling                             
  Simone Kossmann        : meta-GGA functionals, TD-DFT gradient, OOMP2, (MP2 Hessian; deprecated post 5.0) 
  Lucas Lang             : DCDCAS, Hyperfine gauge corrections, ICE-SOC+SSC
  Marvin Lechner         : AUTO-CI (C++ implementation), FIC-MRCC        
  Spencer Leger          : CASSCF response                               
  Dagmar Lenk            : GEPOL surface, SMD, ORCA-2-JSON               
  Dimitrios Liakos       : Extrapolation schemes; Compound Job, Property file
  Dimitrios Manganas     : Further ROCIS development; embedding schemes. LFT, Crystal Embedding 
  Dimitrios Pantazis     : SARC Basis sets                               
  Anastasios Papadopoulos: AUTO-CI, single reference methods and gradients 
  Taras Petrenko         : pre 6.0 DFT Hessian and TD-DFT gradient,  ECA, NRVS 
  Petra Pikulova         : Analytic Raman intensities                    
  Peter Pinski           : DLPNO-MP2, DLPNO-MP2 Gradient                 
  Shashank Vittal Rao    : ES-AILFT, MagRelax                            
  Christoph Reimann      : Effective Core Potentials                     
  Marius Retegan         : Local ZFS, SOC                                
  Christoph Riplinger    : Optimizer, TS searches, QM/MM, DLPNO-CCSD(T), (RO)-DLPNO pert. Triples 
  Michael Roemelt        : Original ROCIS implementation, recursive CI coupling coefficients
  Masaaki Saitow         : Open-shell DLPNO-CCSD energy and density      
  Barbara Sandhoefer     : DKH picture change effects                    
  Yorick L. A. Schmerwitz: GMF and freeze-and-release deltaSCF, NEB S-IDPP initial path                    
  Kantharuban Sivalingam : CASSCF convergence/infrastructure, NEVPT2, NEVPT3, NEVPT4(SD), FIC-MRCI and CEPA variants
  Bernardo de Souza      : ESD, SOC TD-DFT                               
  Georgi L. Stoychev     : AutoAux, RI-MP2 NMR, DLPNO-MP2 response, X2C  
  Van Anh Tran           : RI-MP2 g-tensors                              
  Willem Van den Heuvel  : Paramagnetic NMR                              
  Zikuan Wang            : NOTCH, Electric field optimization            
  Frank Wennmohs         : Technical directorship and infrastructure     
  Hang Xu                : AUTO-CI-Response properties                   
                                                                         
[FACCTs GmbH]                                                            
  Markus Bursch, Nicolas Foglia, Miquel Garcia-Rates, Ingolf Harden, Hagen Neugebauer, Anastasios Papadopoulos, 
  Christoph Riplinger, Bernardo de Souza, Georgi L. Stoychev                                                    
                                                                 
  APM, various basis sets, CI-OPT, improved COSX, DLPNO-Multilevel,           
  DOCKER, DRACO, updates on ESD, Fragmentator, GOAT, IRC, LR-CPCM, L-BFGS, MBIS, meta-GGA TD-DFT gradient, ML-optimized integration grids, 
  MM, NACMEs, nearIR, NEB, NEB-TS, NL-DFT gradient (VV10), 2- and 3-layer-ONIOM, interface openCOSMO-RS, QMMM,   
  Crystal-QMMM, RESP, rigid body optimization, SF, symmetry and pop. for TD-DFT, various functionals, SOLVATOR                                   
                                                                         
[Other institutions]                                                     
  V. Asgeirsson          : NEB                                           
  Christoph Bannwarth    : sTDA-DFT, sTD-DFT, PBEh-3c, B97-3c, D3        
  Giovanni Bistoni       : ETS/NOCV, ADLD/ADEX, COVALED                  
  Martin Brehm           : Molecular dynamics                            
  Ronald Cardenas        : ETS/NOCV                                      
  Martina Colucci        : COVALED                                       
  Sebastian Ehlert       : rSCAN, r2SCAN, r2SCAN-3c, D4, dhf basis sets  
  Marvin Friede          : D4 for Fr, Ra, Ac-Lr                          
  Lars Goerigk           : TD-DFT with DH, B97 family of functionals     
  Stefan Grimme          : VdW corrections, initial TS optimization, DFT functionals, gCP, sTDA/sTD-DF 
  Waldemar Hujo          : DFT-NL                                        
  H. Jonsson             : NEB                                           
  Holger Kruse           : gCP                                           
  Marcel Mueller         : wB97X-3c, vDZP basis set                      
  Hagen Neugebauer       : wr2SCAN, Native XTB                           
  Gianluca Regni         : ADLD/ADEX                                     
  Tobias Risthaus        : pre 6.0 range-separated hybrid DFT and stability analysis
  Lukas Wittmann         : regularized MP2, r2SCAN double-hybrids, wr2SCAN        
                                                                         
We gratefully acknowledge several colleagues who have allowed us to      
interface, adapt or use parts of their codes:                            
  Ed Valeev, F. Pavosevic, A. Kumar             : LibInt (2-el integral package), F12 methods 
  Garnet Chan, S. Sharma, J. Yang, R. Olivares  : DMRG                   
  Ulf Ekstrom                                   : XCFun DFT Library      
  Mihaly Kallay                                 : mrcc  (arbitrary order and MRCC methods)
  Frank Weinhold                                : gennbo (NPA and NBO analysis)           
  Simon Mueller                                 : openCOSMO-RS                            
  Christopher J. Cramer and Donald G. Truhlar   : smd solvation model                     
  S Lehtola, MJT Oliveira, MAL Marques          : LibXC Library                           
  Liviu Ungur et al                             : ANISO software                          


 Your calculation uses the libint2 library for the computation of 2-el integrals
 For citations please refer to: http://libint.valeyev.net

 Your ORCA version has been built with support for libXC version: 7.0.0
 For citations please refer to: https://libxc.gitlab.io

 This ORCA versions uses:
   CBLAS   interface :  Fast vector & matrix operations
   LAPACKE interface :  Fast linear algebra routines
   SCALAPACK package :  Parallel linear algebra routines
   Shared memory     :  Shared parallel matrices
   BLAS/LAPACK       :  OpenBLAS 0.3.29  USE64BITINT DYNAMIC_ARCH NO_AFFINITY Zen SINGLE_THREADED
        Core in use  :  Zen
   Copyright (c) 2011-2014, The OpenBLAS Project


  ***********************************
  * Starting time: Wed Sep 10 13:33:16 2025
  * Host name:     wyk-Server
  * Process ID:    2271295
  * Working dir.:  /home/wyk/Documents/code/openQDC/MGMR/singlepointcalc/16/sp
  ***********************************

Your calculation utilizes the atom-pairwise dispersion correction
with the Becke-Johnson damping scheme (D3BJ)


Warning: RI is on but no J-basis has been assigned. Assigning Def2/J (nothing to worry about!)
================================================================================

----- Orbital basis set information -----
Your calculation utilizes the basis: def2-SVP
   F. Weigend and R. Ahlrichs, Phys. Chem. Chem. Phys. 7, 3297 (2005).

----- AuxJ basis set information -----
Your calculation utilizes the auxiliary basis: def2/J
   H-Rn: F. Weigend, Phys. Chem. Chem. Phys. 8, 1057 (2006).
   Fr-Lr: K. Eichkorn, F. Weigend, O. Treutler, R. Ahlrichs; Theor. Chem. Acc. 97, 119 (1997).

================================================================================
                                        WARNINGS
                       Please study these warnings very carefully!
================================================================================


================================================================================
                                       INPUT FILE
================================================================================
NAME = orca.inp
|  1> ! B3LYP def2-SVP d3 EnGrad 
|  2> %pal nprocs 6 end 
|  3> *xyz 0 1 
|  4> H   -0.11990169815027 0.25110075604897 -1.58693010341688
|  5> C   -0.46508153893358 0.68434433374426 -0.64592039493149
|  6> C   0.48512213974847 1.165194523667 0.25252133364107
|  7> H   -1.45779532531407 1.14214523174689 -0.65431576361729
|  8> H   0.2047695530486 1.92096384534753 1.00964727132977
|  9> O   1.65048767244967 0.63557330291993 0.37078585763324
| 10> H   1.47801914777026 -0.46572884254076 0.23740851445214
| 11> O   0.76656376819926 -1.56503495066048 0.15259248213812
| 12> C   -0.45058439684338 -1.20624320379385 0.21160933608077
| 13> H   -0.92222217607732 -0.97279998366242 1.19053140684538
| 14> H   -1.16937714589764 -1.58951501281709 -0.53792994015484
| 15> *
| 16> 
| 17>                          ****END OF INPUT****
================================================================================

                     *******************************
                     * Energy+Gradient Calculation *
                     *******************************

---------------------------------
CARTESIAN COORDINATES (ANGSTROEM)
---------------------------------
  H     -0.119902    0.251101   -1.586930
  C     -0.465082    0.684344   -0.645920
  C      0.485122    1.165195    0.252521
  H     -1.457795    1.142145   -0.654316
  H      0.204770    1.920964    1.009647
  O      1.650488    0.635573    0.370786
  H      1.478019   -0.465729    0.237409
  O      0.766564   -1.565035    0.152592
  C     -0.450584   -1.206243    0.211609
  H     -0.922222   -0.972800    1.190531
  H     -1.169377   -1.589515   -0.537930

----------------------------
CARTESIAN COORDINATES (A.U.)
----------------------------
  NO LB      ZA    FRAG     MASS         X           Y           Z
   0 H     1.0000    0     1.008   -0.226581    0.474512   -2.998863
   1 C     6.0000    0    12.011   -0.878877    1.293223   -1.220613
   2 C     6.0000    0    12.011    0.916748    2.201899    0.477196
   3 H     1.0000    0     1.008   -2.754834    2.158342   -1.236478
   4 H     1.0000    0     1.008    0.386958    3.630096    1.907957
   5 O     8.0000    0    15.999    3.118970    1.201059    0.700684
   6 H     1.0000    0     1.008    2.793051   -0.880100    0.448637
   7 O     8.0000    0    15.999    1.448596   -2.957487    0.288358
   8 C     6.0000    0    12.011   -0.851481   -2.279469    0.399884
   9 H     1.0000    0     1.008   -1.742747   -1.838326    2.249778
  10 H     1.0000    0     1.008   -2.209803   -3.003748   -1.016540

--------------------------------
INTERNAL COORDINATES (ANGSTROEM)
--------------------------------
 H      0   0   0     0.000000000000     0.00000000     0.00000000
 C      1   0   0     1.091947064450     0.00000000     0.00000000
 C      2   1   0     1.393305951961   118.49225918     0.00000000
 H      2   1   3     1.093221297861   116.52466680   151.75603688
 H      3   2   1     1.105904392786   120.29333613   157.40739084
 O      3   2   1     1.285520112604   122.36925388   327.51147501
 H      6   3   2     1.122675965395   104.71153844   323.40424011
 O      7   6   3     1.312187652665   155.89354008   346.49066872
 C      8   7   6     1.270300815687   106.25285123     4.57396112
 H      9   8   7     1.111407374663   120.45431356   280.06764090
 H      9   8   7     1.106964056465   119.53241105   130.99373856

---------------------------
INTERNAL COORDINATES (A.U.)
---------------------------
 H      0   0   0     0.000000000000     0.00000000     0.00000000
 C      1   0   0     2.063480904550     0.00000000     0.00000000
 C      2   1   0     2.632966669969   118.49225918     0.00000000
 H      2   1   3     2.065888856728   116.52466680   151.75603688
 H      3   2   1     2.089856432666   120.29333613   157.40739084
 O      3   2   1     2.429280952469   122.36925388   327.51147501
 H      6   3   2     2.121550111732   104.71153844   323.40424011
 O      7   6   3     2.479675299850   155.89354008   346.49066872
 C      8   7   6     2.400520649346   106.25285123     4.57396112
 H      9   8   7     2.100255561334   120.45431356   280.06764090
 H      9   8   7     2.091858906813   119.53241105   130.99373856

---------------------
BASIS SET INFORMATION
---------------------
There are 3 groups of distinct atoms

 Group   1 Type H   : 4s1p contracted to 2s1p pattern {31/1}
 Group   2 Type C   : 7s4p1d contracted to 3s2p1d pattern {511/31/1}
 Group   3 Type O   : 7s4p1d contracted to 3s2p1d pattern {511/31/1}

Atom   0H    basis set group =>   1
Atom   1C    basis set group =>   2
Atom   2C    basis set group =>   2
Atom   3H    basis set group =>   1
Atom   4H    basis set group =>   1
Atom   5O    basis set group =>   3
Atom   6H    basis set group =>   1
Atom   7O    basis set group =>   3
Atom   8C    basis set group =>   2
Atom   9H    basis set group =>   1
Atom  10H    basis set group =>   1
---------------------------------
AUXILIARY/J BASIS SET INFORMATION
---------------------------------
There are 3 groups of distinct atoms

 Group   1 Type H   : 5s2p1d contracted to 3s1p1d pattern {311/2/1}
 Group   2 Type C   : 12s5p4d2f1g contracted to 6s4p3d1f1g pattern {711111/2111/211/2/1}
 Group   3 Type O   : 12s5p4d2f1g contracted to 6s4p3d1f1g pattern {711111/2111/211/2/1}

Atom   0H    basis set group =>   1
Atom   1C    basis set group =>   2
Atom   2C    basis set group =>   2
Atom   3H    basis set group =>   1
Atom   4H    basis set group =>   1
Atom   5O    basis set group =>   3
Atom   6H    basis set group =>   1
Atom   7O    basis set group =>   3
Atom   8C    basis set group =>   2
Atom   9H    basis set group =>   1
Atom  10H    basis set group =>   1


           ************************************************************
           *        Program running with 6 parallel MPI-processes     *
           *              working on a common directory               *
           ************************************************************
------------------------------------------------------------------------------
                             ORCA STARTUP CALCULATIONS
                           -- RI-GTO INTEGRALS CHOSEN --
------------------------------------------------------------------------------
------------------------------------------------------------------------------
                   ___                                                        
                  /   \      - P O W E R E D   B Y -                         
                 /     \                                                     
                 |  |  |   _    _      __       _____    __    __             
                 |  |  |  | |  | |    /  \     |  _  \  |  |  /  |          
                  \  \/   | |  | |   /    \    | | | |  |  | /  /          
                 / \  \   | |__| |  /  /\  \   | |_| |  |  |/  /          
                |  |  |   |  __  | /  /__\  \  |    /   |      \           
                |  |  |   | |  | | |   __   |  |    \   |  |\   \          
                \     /   | |  | | |  |  |  |  | |\  \  |  | \   \       
                 \___/    |_|  |_| |__|  |__|  |_| \__\ |__|  \__/        
                                                                              
                      - O R C A' S   B I G   F R I E N D -                    
                                      &                                       
                       - I N T E G R A L  F E E D E R -                       
                                                                              
 v1 FN, 2020, v2 2021, v3 2022-2024                                           
------------------------------------------------------------------------------


----------------------
SHARK INTEGRAL PACKAGE
----------------------

Number of atoms                             ...     11
Number of basis functions                   ...    100
Number of shells                            ...     48
Maximum angular momentum                    ...      2
Integral batch strategy                     ... SHARK/LIBINT Hybrid
RI-J (if used) integral strategy            ... SPLIT-RIJ (Revised 2003 algorithm where possible)
Printlevel                                  ...      1
Contraction scheme used                     ... SEGMENTED contraction
Prescreening option                         ... SCHWARTZ
   Thresh                                   ... 2.500e-11
   Tcut                                     ... 2.500e-12
   Tpresel                                  ... 2.500e-12 
Coulomb Range Separation                    ... NOT USED
Exchange Range Separation                   ... NOT USED
Multipole approximations                    ... NOT USED
Finite Nucleus Model                        ... NOT USED
CABS basis                                  ... NOT available
Auxiliary Coulomb fitting basis             ... AVAILABLE
   # of basis functions in Aux-J            ...    311
   # of shells in Aux-J                     ...    105
   Maximum angular momentum in Aux-J        ...      4
Auxiliary J/K fitting basis                 ... NOT available
Auxiliary Correlation fitting basis         ... NOT available
Auxiliary 'external' fitting basis          ... NOT available

Checking pre-screening integrals            ... done (  0.0 sec) Dimension = 48
   => SHARK Basis and OBASIS are compatible. Storing Pre-screening
Shell pair information
Shell pair cut-off parameter TPreSel        ...   2.5e-12
Total number of shell pairs                 ...      1176
Shell pairs after pre-screening             ...      1165
Total number of primitive shell pairs       ...      4178
Primitive shell pairs kept                  ...      3348
          la=0 lb=0:    371 shell pairs
          la=1 lb=0:    428 shell pairs
          la=1 lb=1:    136 shell pairs
          la=2 lb=0:    135 shell pairs
          la=2 lb=1:     80 shell pairs
          la=2 lb=2:     15 shell pairs

Checking whether 4 symmetric matrices of dimension 100 fit in memory
:Max Core in MB      =   4096.00
 MB in use           =      4.79
 MB left             =   4091.21
 MB needed           =      0.15
 Data fit in memory  = YES
Calculating RI/J V-Matrix + Cholesky decomp.... done (  0.0 sec)
Calculating Nuclear repulsion               ... done (  0.0 sec) ENN=    179.876154357139 Eh

Diagonalization of the overlap matrix:
Smallest eigenvalue                        ... 2.812e-03
Time for diagonalization                   ...    0.001 sec
Threshold for overlap eigenvalues          ... 1.000e-07
Number of eigenvalues below threshold      ... 0
Time for construction of square roots      ...    0.001 sec
Total time needed                          ...    0.003 sec

-------------------
DFT GRID GENERATION
-------------------

General Integration Accuracy     IntAcc      ... 4.388
Radial Grid Type                 RadialGrid  ... OptM3 with GC (2021)
Angular Grid (max. ang.)         AngularGrid ... 4 (Lebedev-302)
Angular grid pruning method      GridPruning ... 4 (adaptive)
Weight generation scheme         WeightScheme... mBecke (2022)
Basis function cutoff            BFCut       ... 1.0000e-11
Integration weight cutoff        WCut        ... 1.0000e-14
Partially contracted basis set               ... off
Rotationally invariant grid construction     ... off
Angular grids for H and He will be reduced by one unit

Total number of grid points                  ...    49735
Total number of batches                      ...      782
Average number of points per batch           ...       63
Average number of grid points per atom       ...     4521

--------------------
COSX GRID GENERATION
--------------------

GRIDX 1
-------
General Integration Accuracy     IntAcc      ... 3.816
Radial Grid Type                 RadialGrid  ... OptM3 with GC (2021)
Angular Grid (max. ang.)         AngularGrid ... 1 (Lebedev-50)
Angular grid pruning method      GridPruning ... 4 (adaptive)
Weight generation scheme         WeightScheme... mBecke (2022)
Basis function cutoff            BFCut       ... 1.0000e-11
Integration weight cutoff        WCut        ... 1.0000e-14
Partially contracted basis set               ... on
Rotationally invariant grid construction     ... off
Angular grids for H and He will be reduced by one unit

Total number of grid points                  ...     6390
Total number of batches                      ...       56
Average number of points per batch           ...      114
Average number of grid points per atom       ...      581
UseSFitting                                  ... on

GRIDX 2
-------
General Integration Accuracy     IntAcc      ... 4.020
Radial Grid Type                 RadialGrid  ... OptM3 with GC (2021)
Angular Grid (max. ang.)         AngularGrid ... 2 (Lebedev-110)
Angular grid pruning method      GridPruning ... 4 (adaptive)
Weight generation scheme         WeightScheme... mBecke (2022)
Basis function cutoff            BFCut       ... 1.0000e-11
Integration weight cutoff        WCut        ... 1.0000e-14
Partially contracted basis set               ... on
Rotationally invariant grid construction     ... off
Angular grids for H and He will be reduced by one unit

Total number of grid points                  ...    13773
Total number of batches                      ...      113
Average number of points per batch           ...      121
Average number of grid points per atom       ...     1252
UseSFitting                                  ... on

GRIDX 3
-------
General Integration Accuracy     IntAcc      ... 4.338
Radial Grid Type                 RadialGrid  ... OptM3 with GC (2021)
Angular Grid (max. ang.)         AngularGrid ... 3 (Lebedev-194)
Angular grid pruning method      GridPruning ... 4 (adaptive)
Weight generation scheme         WeightScheme... mBecke (2022)
Basis function cutoff            BFCut       ... 1.0000e-11
Integration weight cutoff        WCut        ... 1.0000e-14
Partially contracted basis set               ... on
Rotationally invariant grid construction     ... off
Angular grids for H and He will be reduced by one unit

Total number of grid points                  ...    30254
Total number of batches                      ...      243
Average number of points per batch           ...      124
Average number of grid points per atom       ...     2750
UseSFitting                                  ... on
Grids setup in   0.5 sec
Initializing property integral containers    ... done (  0.0 sec)

SHARK setup successfully completed in   0.6 seconds

Maximum memory used throughout the entire STARTUP-calculation: 14.0 MB


           ************************************************************
           *        Program running with 6 parallel MPI-processes     *
           *              working on a common directory               *
           ************************************************************
-------------------------------------------------------------------------------
                                 ORCA GUESS
                   Start orbitals & Density for SCF / CASSCF
-------------------------------------------------------------------------------

------------
SCF SETTINGS
------------
Hamiltonian:
 Density Functional     Method          .... DFT(GTOs)
 Exchange Functional    Exchange        .... B88
   X-Alpha parameter    XAlpha          ....  0.666667
   Becke's b parameter  XBeta           ....  0.004200
 Correlation Functional Correlation     .... LYP
 LDA part of GGA corr.  LDAOpt          .... VWN-5
 Gradients option       PostSCFGGA      .... off
 Hybrid DFT is turned on
   Fraction HF Exchange ScalHFX         ....  0.200000
   Scaling of DF-GGA-X  ScalDFX         ....  0.720000
   Scaling of DF-GGA-C  ScalDFC         ....  0.810000
   Scaling of DF-LDA-C  ScalLDAC        ....  1.000000
   Perturbative correction              ....  0.000000
   NL short-range parameter             ....  4.800000
 RI-approximation to the Coulomb term is turned on
   Number of AuxJ basis functions       .... 311
   RIJ-COSX (HFX calculated with COS-X)).... on


General Settings:
 Integral files         IntName         .... orca
 Hartree-Fock type      HFTyp           .... RHF
 Total Charge           Charge          ....    0
 Multiplicity           Mult            ....    1
 Number of Electrons    NEL             ....   40
 Basis Dimension        Dim             ....  100
 Nuclear Repulsion      ENuc            ....    179.8761543571 Eh

Convergence Acceleration:
 AO-DIIS                CNVDIIS         .... on
   Start iteration      DIISMaxIt       ....    12
   Startup error        DIISStart       ....  0.200000
   # of expansion vecs  DIISMaxEq       ....     5
   Bias factor          DIISBfac        ....   1.050
   Max. coefficient     DIISMaxC        ....  10.000
 MO-DIIS                CNVKDIIS        .... off
 Trust-Rad. Augm. Hess. CNVTRAH         .... auto
   Auto Start mean grad. ratio tolernc. ....  1.125000
   Auto Start start iteration           ....    50
   Auto Start num. interpolation iter.  ....    10
   Max. Number of Micro iterations      ....    24
   Max. Number of Macro iterations      .... Maxiter - #DIIS iter
   Number of Davidson start vectors     ....     2
   Converg. threshold    (grad. norm)   ....   1.000e-05
   Grad. Scal. Fac. for Micro threshold ....   0.100
   Minimum threshold for Micro iter.    ....   1.000e-02
   NR start threshold (gradient norm)   ....   1.000e-04
   Initial trust radius                 ....   0.400
   Minimum AH scaling param. (alpha)    ....   1.000
   Maximum AH scaling param. (alpha)    .... 1000.000
   Quad. conv. algorithm                .... NR
   White noise on init. David. guess    .... on
   Maximum white noise                  ....   0.010
   Pseudo random numbers                .... off
   Inactive MOs                         .... canonical
   Orbital update algorithm             .... Taylor
   Preconditioner                       .... Diag
   Full preconditioner red. dimension   ....   250
 SOSCF                 CNVSOSCF           .... on
   Start iteration     SOSCFMaxIt         ....   150
   Startup grad/error  SOSCFStart         ....  0.003300
   Hessian update      SOSCFHessUp        .... L-BFGS
   Autom. constraints  SOSCFAutoConstrain .... off
 Level Shifting         CNVShift        .... on
   Level shift para.    LevelShift      ....    0.2500
   Turn off err/grad.   ShiftErr        ....    0.0010
 Zerner damping         CNVZerner       .... off
 Static damping         CNVDamp         .... on
   Fraction old density DampFac         ....    0.7000
   Max. Damping (<1)    DampMax         ....    0.9800
   Min. Damping (>=0)   DampMin         ....    0.0000
   Turn off err/grad.   DampErr         ....    0.1000

SCF Procedure:
 Maximum # iterations   MaxIter         ....   125
 SCF integral mode      SCFMode         .... Direct
   Integral package                     .... SHARK and LIBINT hybrid scheme
 Reset frequency        DirectResetFreq ....    20
 Integral Threshold     Thresh          ....  2.500e-11 Eh
 Primitive CutOff       TCut            ....  2.500e-12 Eh

Convergence Tolerance:
 Convergence Check Mode ConvCheckMode   .... Total+1el-Energy
 Convergence forced     ConvForced      .... 0
 Energy Change          TolE            ....  1.000e-08 Eh
 1-El. energy change                    ....  1.000e-05 Eh
 Orbital Gradient       TolG            ....  1.000e-05
 Orbital Rotation angle TolX            ....  1.000e-05
 DIIS Error             TolErr          ....  5.000e-07

------------------------------
INITIAL GUESS: MODEL POTENTIAL
------------------------------
Loading Hartree-Fock densities                     ... done
Calculating cut-offs                               ... done
Initializing the effective Hamiltonian             ... done
Setting up the integral package (SHARK)            ... done
Starting the Coulomb interaction                   ... done (   0.0 sec)
Making the grid                                    ... done (   0.1 sec)
Mapping shells                                     ... done
Starting the XC term evaluation                    ... done (   0.0 sec)
  promolecular density results
     # of electrons  =     39.998226095
     EX              =    -33.557753355
     EC              =     -1.354477057
     EX+EC           =    -34.912230412
Transforming the Hamiltonian                       ... done (   0.0 sec)
Diagonalizing the Hamiltonian                      ... done (   0.0 sec)
Back transforming the eigenvectors                 ... done (   0.0 sec)
Now organizing SCF variables                       ... done
                      ------------------
                      INITIAL GUESS DONE (   0.1 sec)
                      ------------------
             **** ENERGY FILE WAS UPDATED (orca.en.tmp) ****
Finished Guess after   0.2 sec
Maximum memory used throughout the entire GUESS-calculation: 7.2 MB


           ************************************************************
           *        Program running with 6 parallel MPI-processes     *
           *              working on a common directory               *
           ************************************************************

-------------------------------------------------------------------------------------------
                                      ORCA LEAN-SCF
                              memory conserving SCF solver
-------------------------------------------------------------------------------------------

----------------------------------------D-I-I-S--------------------------------------------
Iteration    Energy (Eh)           Delta-E    RMSDP     MaxDP     DIISErr   Damp  Time(sec)
-------------------------------------------------------------------------------------------
               ***  Starting incremental Fock matrix formation  ***
    1    -267.7985265903491836     0.00e+00  1.17e-02  8.61e-02  2.48e-01  0.700   0.5
    2    -267.8739532567570905    -7.54e-02  7.27e-03  4.88e-02  9.47e-02  0.700   0.3
                               ***Turning on AO-DIIS***
    3    -267.8998083470254414    -2.59e-02  2.69e-03  1.82e-02  3.09e-02  0.700   0.3
    4    -267.9165185075190720    -1.67e-02  4.12e-03  2.27e-02  1.30e-02  0.000   0.3
    5    -267.9542566221232391    -3.77e-02  9.55e-04  5.29e-03  5.53e-03  0.000   0.3
                              *** Initializing SOSCF ***
---------------------------------------S-O-S-C-F--------------------------------------
Iteration    Energy (Eh)           Delta-E    RMSDP     MaxDP     MaxGrad    Time(sec)
--------------------------------------------------------------------------------------
    6    -267.9544649728067043    -2.08e-04  3.11e-04  1.75e-03  1.10e-03     0.3
               *** Restarting incremental Fock matrix formation ***
    7    -267.9544031987907147     6.18e-05  2.31e-04  1.33e-03  2.55e-04     0.5
    8    -267.9544045128056950    -1.31e-06  8.67e-05  5.59e-04  1.90e-04     0.4
    9    -267.9544057148334559    -1.20e-06  5.67e-05  3.06e-04  7.88e-05     0.4
   10    -267.9544057558788381    -4.10e-08  2.16e-05  1.57e-04  7.33e-05     0.4
   11    -267.9544059003801522    -1.45e-07  1.39e-05  7.03e-05  2.28e-05     0.4
   12    -267.9544058983824470     2.00e-09  6.52e-06  4.24e-05  1.72e-05     0.3
                 **** Energy Check signals convergence ****

               *****************************************************
               *                     SUCCESS                       *
               *           SCF CONVERGED AFTER  12 CYCLES          *
               *****************************************************

Recomputing exchange energy using gridx3       ... done (    0.628 sec)
Old exchange energy                            :     -6.795916482 Eh
New exchange energy                            :     -6.795881599 Eh
Exchange energy change after final integration :      0.000034884 Eh
Total energy after final integration           :   -267.954371027 Eh
             **** ENERGY FILE WAS UPDATED (orca.en.tmp) ****

----------------
TOTAL SCF ENERGY
----------------

Total Energy       :       -267.95437102727840 Eh           -7291.40912 eV

Components:
Nuclear Repulsion  :        179.87615435713880 Eh            4894.67900 eV
Electronic Energy  :       -447.83056026806531 Eh          -12186.08907 eV
One Electron Energy:       -720.97458021227726 Eh          -19618.71572 eV
Two Electron Energy:        273.14401994421195 Eh            7432.62665 eV

Virial components:
Potential Energy   :       -533.63218011500703 Eh          -14520.86985 eV
Kinetic Energy     :        265.67780908772869 Eh            7229.46072 eV
Virial Ratio       :          2.00856888253997

DFT components:
N(Alpha)           :       20.000009805811 electrons
N(Beta)            :       20.000009805811 electrons
N(Total)           :       40.000019611622 electrons
E(X)               :      -27.060526224817 Eh       
E(C)               :       -1.600764415180 Eh       
E(XC)              :      -28.661290639997 Eh       

---------------
SCF CONVERGENCE
---------------

  Last Energy change         ...   -1.9977e-09  Tolerance :   1.0000e-08
  Last MAX-Density change    ...    4.2409e-05  Tolerance :   1.0000e-07
  Last RMS-Density change    ...    6.5219e-06  Tolerance :   5.0000e-09
  Last DIIS Error            ...    1.0979e-03  Tolerance :   5.0000e-07
  Last Orbital Gradient      ...    1.7189e-05  Tolerance :   1.0000e-05
  Last Orbital Rotation      ...    1.7870e-05  Tolerance :   1.0000e-05


----------------
ORBITAL ENERGIES
----------------

  NO   OCC          E(Eh)            E(eV) 
   0   2.0000     -19.153486      -521.1928 
   1   2.0000     -19.117036      -520.2010 
   2   2.0000     -10.278658      -279.6965 
   3   2.0000     -10.277381      -279.6617 
   4   2.0000     -10.201636      -277.6006 
   5   2.0000      -1.062779       -28.9197 
   6   2.0000      -1.006762       -27.3954 
   7   2.0000      -0.756946       -20.5976 
   8   2.0000      -0.628516       -17.1028 
   9   2.0000      -0.610804       -16.6208 
  10   2.0000      -0.525667       -14.3041 
  11   2.0000      -0.499473       -13.5913 
  12   2.0000      -0.463530       -12.6133 
  13   2.0000      -0.444179       -12.0867 
  14   2.0000      -0.430237       -11.7073 
  15   2.0000      -0.406893       -11.0721 
  16   2.0000      -0.358897        -9.7661 
  17   2.0000      -0.332168        -9.0388 
  18   2.0000      -0.265935        -7.2365 
  19   2.0000      -0.245344        -6.6761 
  20   0.0000      -0.052489        -1.4283 
  21   0.0000       0.036348         0.9891 
  22   0.0000       0.064755         1.7621 
  23   0.0000       0.081552         2.2191 
  24   0.0000       0.111068         3.0223 
  25   0.0000       0.135478         3.6865 
  26   0.0000       0.139287         3.7902 
  27   0.0000       0.168224         4.5776 
  28   0.0000       0.235646         6.4123 
  29   0.0000       0.266932         7.2636 
  30   0.0000       0.300210         8.1691 
*Only the first 10 virtual orbitals were printed.

                    ********************************
                    * MULLIKEN POPULATION ANALYSIS *
                    ********************************

-----------------------
MULLIKEN ATOMIC CHARGES
-----------------------
   0 H :    0.066682
   1 C :   -0.132617
   2 C :    0.148201
   3 H :    0.032492
   4 H :    0.020560
   5 O :   -0.250509
   6 H :    0.244186
   7 O :   -0.370523
   8 C :    0.201583
   9 H :    0.016694
  10 H :    0.023251
Sum of atomic charges:    0.0000000

--------------------------------
MULLIKEN REDUCED ORBITAL CHARGES
--------------------------------
  0 H s       :     0.910142  s :     0.910142
      pz      :     0.011912  p :     0.023176
      px      :     0.005055
      py      :     0.006209

  1 C s       :     3.111389  s :     3.111389
      pz      :     1.002484  p :     2.996072
      px      :     0.960232
      py      :     1.033355
      dz2     :     0.005825  d :     0.025156
      dxz     :     0.006396
      dyz     :     0.004069
      dx2y2   :     0.003695
      dxy     :     0.005170

  2 C s       :     3.143658  s :     3.143658
      pz      :     0.921443  p :     2.628645
      px      :     0.832004
      py      :     0.875198
      dz2     :     0.010314  d :     0.079496
      dxz     :     0.022217
      dyz     :     0.009068
      dx2y2   :     0.017974
      dxy     :     0.019923

  3 H s       :     0.944718  s :     0.944718
      pz      :     0.003860  p :     0.022789
      px      :     0.012701
      py      :     0.006229

  4 H s       :     0.959243  s :     0.959243
      pz      :     0.008998  p :     0.020197
      px      :     0.002626
      py      :     0.008573

  5 O s       :     3.720971  s :     3.720971
      pz      :     1.763010  p :     4.513987
      px      :     1.404359
      py      :     1.346617
      dz2     :     0.001952  d :     0.015551
      dxz     :     0.003243
      dyz     :     0.000578
      dx2y2   :     0.005800
      dxy     :     0.003978

  6 H s       :     0.669636  s :     0.669636
      pz      :     0.012402  p :     0.086178
      px      :     0.017808
      py      :     0.055969

  7 O s       :     3.776743  s :     3.776743
      pz      :     1.822930  p :     4.578779
      px      :     1.265402
      py      :     1.490447
      dz2     :     0.001905  d :     0.015001
      dxz     :     0.002861
      dyz     :     0.000689
      dx2y2   :     0.004520
      dxy     :     0.005026

  8 C s       :     3.107006  s :     3.107006
      pz      :     0.957009  p :     2.616758
      px      :     0.863351
      py      :     0.796398
      dz2     :     0.008893  d :     0.074653
      dxz     :     0.029130
      dyz     :     0.003959
      dx2y2   :     0.016214
      dxy     :     0.016458

  9 H s       :     0.962901  s :     0.962901
      pz      :     0.012304  p :     0.020405
      px      :     0.004399
      py      :     0.003702

 10 H s       :     0.955838  s :     0.955838
      pz      :     0.009170  p :     0.020911
      px      :     0.006990
      py      :     0.004752



                     *******************************
                     * LOEWDIN POPULATION ANALYSIS *
                     *******************************

----------------------
LOEWDIN ATOMIC CHARGES
----------------------
   0 H :    0.043474
   1 C :   -0.117511
   2 C :    0.114264
   3 H :    0.029534
   4 H :    0.016372
   5 O :   -0.069835
   6 H :    0.055292
   7 O :   -0.209481
   8 C :    0.135894
   9 H :   -0.006924
  10 H :    0.008921

-------------------------------
LOEWDIN REDUCED ORBITAL CHARGES
-------------------------------
  0 H s       :     0.884651  s :     0.884651
      pz      :     0.035684  p :     0.071875
      px      :     0.014931
      py      :     0.021260

  1 C s       :     2.895539  s :     2.895539
      pz      :     1.052878  p :     3.156421
      px      :     1.061021
      py      :     1.042522
      dz2     :     0.014960  d :     0.065552
      dxz     :     0.017706
      dyz     :     0.010209
      dx2y2   :     0.009623
      dxy     :     0.013053

  2 C s       :     2.880998  s :     2.880998
      pz      :     0.980833  p :     2.825418
      px      :     0.934537
      py      :     0.910049
      dz2     :     0.022105  d :     0.179320
      dxz     :     0.052940
      dyz     :     0.021230
      dx2y2   :     0.039410
      dxy     :     0.043635

  3 H s       :     0.899985  s :     0.899985
      pz      :     0.011969  p :     0.070481
      px      :     0.037087
      py      :     0.021426

  4 H s       :     0.919411  s :     0.919411
      pz      :     0.027971  p :     0.064218
      px      :     0.010115
      py      :     0.026131

  5 O s       :     3.463580  s :     3.463580
      pz      :     1.736624  p :     4.577492
      px      :     1.489137
      py      :     1.351732
      dz2     :     0.004026  d :     0.028763
      dxz     :     0.004485
      dyz     :     0.000983
      dx2y2   :     0.011892
      dxy     :     0.007378

  6 H s       :     0.677212  s :     0.677212
      pz      :     0.031282  p :     0.267495
      px      :     0.045164
      py      :     0.191050

  7 O s       :     3.516923  s :     3.516923
      pz      :     1.810894  p :     4.664918
      px      :     1.373773
      py      :     1.480251
      dz2     :     0.004220  d :     0.027640
      dxz     :     0.004503
      dyz     :     0.000718
      dx2y2   :     0.008477
      dxy     :     0.009722

  8 C s       :     2.901043  s :     2.901043
      pz      :     1.027959  p :     2.794660
      px      :     0.953643
      py      :     0.813058
      dz2     :     0.020326  d :     0.168403
      dxz     :     0.070855
      dyz     :     0.007697
      dx2y2   :     0.035743
      dxy     :     0.033783

  9 H s       :     0.940881  s :     0.940881
      pz      :     0.039003  p :     0.066043
      px      :     0.015270
      py      :     0.011769

 10 H s       :     0.924844  s :     0.924844
      pz      :     0.028100  p :     0.066235
      px      :     0.023691
      py      :     0.014444



                      *****************************
                      * MAYER POPULATION ANALYSIS *
                      *****************************

  NA   - Mulliken gross atomic population
  ZA   - Total nuclear charge
  QA   - Mulliken gross atomic charge
  VA   - Mayer's total valence
  BVA  - Mayer's bonded valence
  FA   - Mayer's free valence

  ATOM       NA         ZA         QA         VA         BVA        FA
  0 H      0.9333     1.0000     0.0667     0.9889     0.9889    -0.0000
  1 C      6.1326     6.0000    -0.1326     3.9001     3.9001     0.0000
  2 C      5.8518     6.0000     0.1482     4.0848     4.0848     0.0000
  3 H      0.9675     1.0000     0.0325     0.9805     0.9805     0.0000
  4 H      0.9794     1.0000     0.0206     0.9798     0.9798    -0.0000
  5 O      8.2505     8.0000    -0.2505     2.2760     2.2760    -0.0000
  6 H      0.7558     1.0000     0.2442     1.0644     1.0644    -0.0000
  7 O      8.3705     8.0000    -0.3705     2.1324     2.1324     0.0000
  8 C      5.7984     6.0000     0.2016     4.0255     4.0255    -0.0000
  9 H      0.9833     1.0000     0.0167     0.9565     0.9565    -0.0000
 10 H      0.9767     1.0000     0.0233     0.9577     0.9577    -0.0000

  Mayer bond orders larger than 0.100000
B(  0-H ,  1-C ) :   0.9349 B(  1-C ,  2-C ) :   1.4284 B(  1-C ,  3-H ) :   0.9440 
B(  1-C ,  8-C ) :   0.4943 B(  2-C ,  4-H ) :   0.9615 B(  2-C ,  5-O ) :   1.4604 
B(  5-O ,  6-H ) :   0.6389 B(  6-H ,  7-O ) :   0.3940 B(  7-O ,  8-C ) :   1.5268 
B(  8-C ,  9-H ) :   0.9244 B(  8-C , 10-H ) :   0.9210 

-------
TIMINGS
-------

Total SCF time: 0 days 0 hours 0 min 5 sec 

Total time                  ....       5.387 sec
Sum of individual times     ....       4.994 sec  ( 92.7%)

SCF preparation             ....       0.162 sec  (  3.0%)
Fock matrix formation       ....       4.653 sec  ( 86.4%)
  Startup                   ....       0.004 sec  (  0.1% of F)
  Split-RI-J                ....       0.354 sec  (  7.6% of F)
  Chain of spheres X        ....       3.501 sec  ( 75.2% of F)
  XC integration            ....       1.033 sec  ( 22.2% of F)
    XC Preparation          ....       0.000 sec  (  0.0% of XC)
    Basis function eval.    ....       0.318 sec  ( 30.8% of XC)
    Density eval.           ....       0.164 sec  ( 15.9% of XC)
    XC-Functional eval.     ....       0.071 sec  (  6.9% of XC)
    XC-Potential eval.      ....       0.198 sec  ( 19.2% of XC)
Diagonalization             ....       0.000 sec  (  0.0%)
Density matrix formation    ....       0.024 sec  (  0.5%)
Total Energy calculation    ....       0.014 sec  (  0.3%)
Population analysis         ....       0.010 sec  (  0.2%)
Orbital Transformation      ....       0.012 sec  (  0.2%)
Orbital Orthonormalization  ....       0.000 sec  (  0.0%)
DIIS solution               ....       0.066 sec  (  1.2%)
SOSCF solution              ....       0.052 sec  (  1.0%)
Finished LeanSCF after   5.4 sec

Maximum memory used throughout the entire LEANSCF-calculation: 8.8 MB


-------------------------------------------------------------------------------
                          DFT DISPERSION CORRECTION                            
                                                                               
                              DFTD3 V3.1  Rev 1                                
                          USING Becke-Johnson damping                          
-------------------------------------------------------------------------------
The B3LYP functional is recognized
Active option DFTDOPT                   ...         4   

molecular C6(AA) [au] = 1010.006954 


            DFT-D V3
 parameters
 s6 scaling factor         :     1.0000 
 a1 scaling factor         :     0.3981 
 s8 scaling factor         :     1.9889 
 a2 scaling factor         :     4.4211 
 ad hoc parameters k1-k3   :    16.0000     1.3333    -4.0000 

 Edisp/kcal,au: -8.369109717188  -0.013337023854 
 E6   /kcal   :  -4.072924246 
 E8   /kcal   :  -4.296185471 
 % E8         :  51.333840948 

-------------------------   ----------------
Dispersion correction           -0.013337024
-------------------------   ----------------


-------------------------   --------------------
FINAL SINGLE POINT ENERGY      -267.967708051133
-------------------------   --------------------



           ************************************************************
           *        Program running with 6 parallel MPI-processes     *
           *              working on a common directory               *
           ************************************************************
------------------------------------------------------------------------------
                         ORCA SCF GRADIENT CALCULATION
------------------------------------------------------------------------------

Nuc. rep. gradient        (SHARK) ... done (  0.0 sec)
HCore & Overlap gradient  (SHARK) ... done (  0.0 sec)
Split-RIJ-J gradient      (SHARK) ... done (  0.2 sec)
done (  2.6 sec)
XC gradient                       ... done (  0.5 sec)
Dispersion correction             ... done (  0.1 sec)

-------------------
DISPERSION GRADIENT
-------------------

   1   H   :   -0.000081645    0.000098216   -0.000151546
   2   C   :   -0.000047456   -0.001609686    0.000653831
   3   C   :    0.000089301    0.000269378    0.000042904
   4   H   :   -0.000113919    0.000146340   -0.000113666
   5   H   :    0.000035260    0.000245103    0.000100048
   6   O   :    0.000217619    0.000073565    0.000024444
   7   H   :   -0.000252297   -0.000657656   -0.000009403
   8   O   :    0.000543379    0.000341291    0.000101982
   9   C   :   -0.000196631    0.001517903   -0.000746515
  10   H   :   -0.000112516   -0.000235343    0.000069211
  11   H   :   -0.000081097   -0.000189113    0.000028710

Difference to translation invariance:
           :    0.0000000000   -0.0000000000    0.0000000000

Difference to rotation invariance:
           :    0.0000000000    0.0000000000    0.0000000000

Norm of the Dispersion gradient    ...    0.0026923734
RMS gradient                       ...    0.0004686821
MAX gradient                       ...    0.0016096857

------------------
CARTESIAN GRADIENT
------------------

   1   H   :   -0.000035431    0.000039275   -0.000001783
   2   C   :   -0.000100672   -0.000042617   -0.000073505
   3   C   :    0.000146767    0.000040228    0.000042638
   4   H   :    0.000042984    0.000017617   -0.000028257
   5   H   :   -0.000064255    0.000026519    0.000055033
   6   O   :    0.000066464   -0.000044804   -0.000001492
   7   H   :   -0.000013619    0.000060368   -0.000075195
   8   O   :   -0.000170479    0.000040283    0.000131282
   9   C   :    0.000136664   -0.000082296   -0.000092830
  10   H   :    0.000020116   -0.000044747    0.000000464
  11   H   :   -0.000028538   -0.000009827    0.000043646

Difference to translation invariance:
           :    0.0000000002   -0.0000000000    0.0000000000

Difference to rotation invariance:
           :    0.0000265707    0.0000831321   -0.0000847458

Norm of the Cartesian gradient     ...    0.0003988373
RMS gradient                       ...    0.0000694287
MAX gradient                       ...    0.0001704791

-------
TIMINGS
-------

Total SCF gradient time     ....        3.385 sec

Densities                   ....       0.000 sec  (  0.0%)
One electron gradient       ....       0.023 sec  (  0.7%)
RI-J Coulomb gradient       ....       0.182 sec  (  5.4%)
COSX gradient               ....       2.639 sec  ( 78.0%)
XC gradient                 ....       0.486 sec  ( 14.4%)

Maximum memory used throughout the entire SCFGRAD-calculation: 27.1 MB


           ************************************************************
           *        Program running with 6 parallel MPI-processes     *
           *              working on a common directory               *
           ************************************************************

------------------------------------------------------------------------------
                              ORCA PROPERTY CALCULATIONS
------------------------------------------------------------------------------

GBWName                                 ... orca.gbw
Number of atoms                         ...     11
Number of basis functions               ...    100
Max core memory                         ...   4096 MB

Electric properties:
Dipole moment                           ... YES
Quadrupole moment                       ...  NO
Static polarizability (Dipole/Dipole)   ...  NO
Static polarizability (Dipole/Quad.)    ...  NO
Static polarizability (Quad./Quad.)     ...  NO
Static polarizability (Velocity)        ...  NO
Static hyperpolarizability              ...  NO

Atomic electric properties:
Dipole moment                           ...  NO
Quadrupole moment                       ...  NO
Static polarizability                   ...  NO

Choice of electric origin               ... Center of mass
Position of electric origin             ...     0.803470    -0.174878     0.149122

General magnetic properties:
Magnetizability                         ...  NO

EPR properties:
g-Tensor (aka g-matrix)                 ...  NO
Zero-Field splitting spin-orbit         ...  NO
Zero-field splitting spin-spin          ...  NO
Hyperfine couplings                     ...  NO (   0 nuclei)
Quadrupole couplings                    ...  NO (   0 nuclei)
Contact density                         ...  NO (   0 nuclei)

NMR properties:
Chemical shifts                         ...  NO (   0 nuclei)
Spin-rotation constants                 ...  NO (   0 nuclei)
Spin-spin couplings                     ...  NO (   0 nuclei,    0 pairs)

Choice of magnetic origin               ... GIAO
Position of magnetic origin             ...     0.000000     0.000000     0.000000

Properties with geometric perturbations:
SCF Hessian                             ...  NO
IR spectrum                             ...  NO
VCD spectrum                            ...  NO
X-ray spectroscopy properties:
SCF XES/XAS/RIXS spectra                ...  NO

SCF SOC stabilization energy            ...  NO
Diagonal Born-Oppenheimer correction    ...  NO

-------------
DIPOLE MOMENT
-------------

Method             : SCF
Type of density    : Electron Density
Multiplicity       :   1
Irrep              :   0
Energy             :  -267.9543710272783983 Eh
Basis              : AO
                                X                 Y                 Z
Electronic contribution:      3.171363971      -0.260146104       0.701894988
Nuclear contribution   :     -4.233874886       0.778386538      -0.759265141
                        -----------------------------------------
Total Dipole Moment    :     -1.062510916       0.518240434      -0.057370153
                        -----------------------------------------
Magnitude (a.u.)       :      1.183551405
Magnitude (Debye)      :      3.008348594



--------------------
Rotational spectrum 
--------------------
 
Rotational constants in cm-1:             0.257272             0.160587             0.110492 
Rotational constants in MHz :          7712.815108          4814.265238          3312.472940 

Dipole components along the rotational axes: 
x,y,z [a.u.] :     0.239069     1.111008     0.330606 
x,y,z [Debye]:     0.607666     2.823959     0.840333 

 

Dipole moment calculation done in   0.0 sec 

Maximum memory used throughout the entire PROP-calculation: 5.2 MB

--------------------------------
SUGGESTED CITATIONS FOR THIS RUN
--------------------------------

Below you find a list of papers that are relevant to this ORCA run
We neither can nor want to force you to cite these papers, but we appreciate if you do
You receive ORCA, which is the product of decades of hard work by many enthusiastic individuals, for free
The only thing we kindly ask in return is that you cite our papers,
We deeply appreciate it, if you show your appreciation for ORCA by not just citing the generic ORCA reference.

Please note that relegating all ORCA citations to the supporting information does *not* help us.
SI sections are not indexed - citations you put there will not count into any citation statistics
But we need these citations in order to attract the funding resources that allow us to do what we are doing

Therefore, if you are a happy ORCA user, please consider citing a few of the papers listed below in the main body of your paper

In addition to the list printed below, the program has created the file orca.bibtex that contains the list in bibtex format
You can import this file easily into all common literature databanks and citation aid programs


List of essential papers. We consider these as the minimum necessary citations

  1. Neese, F.
     Software update: the ORCA program system, version 6.0
     WIRES Comput. Molec. Sci. 2025 15(1), e70019
     doi.org/10.1002/wcms.7019

List of papers to cite with high priority. The work reported in these papers was absolutely
necessary for this run to complete.
Our perspective: the developers of density functionals and basis sets usually get cited in chemistry papers
Good! But without the algorithms to do something with them, the functionals or basis sets would not do anything.
Hence, in our opinion, the algorithm design and method developments papers are equally worthy of getting cited

  1. Neese, F.
     An improvement of the resolution of the identity approximation for the formation of the Coulomb matrix
     J. Comp. Chem. 2003 24(14), 1740-1747
     doi.org/10.1002/jcc.10318
  2. Neese, F.; Wennmohs, F.; Hansen, A.; Becker, U.
     Efficient, approximate and parallel Hartree-Fock and hybrid DFT calculations. A 'chain-of-spheres' algorithm for the Hartree-Fock exchange
     Chem. Phys. 2009 356(1-3), 98-109
     doi.org/10.1016/j.chemphys.2008.10.036
  3. Grimme, S.; Antony, J.; Ehrlich, S.; Krieg, H.
     A consistent and accurate ab initio parametrization of density functional dispersion correction (DFT-D) for the 94 elements H-Pu
     J. Chem. Phys. 2010 132 , 154104
     doi.org/10.1063/1.3382344
  4. Grimme, S.; Ehrlich, S.; Goerigk, L.
     Effect of the damping function in dispersion corrected density functional theory
     J. Comput. Chem. 2011 32(7), 1456-1465
     doi.org/10.1002/jcc.21759
  5. Helmich-Paris, B.; de Souza, B.; Neese, F.; Izsák, R.
     An improved chain of spheres for exchange algorithm
     J. Chem. Phys. 2021 155(10), 104109
     doi.org/10.1063/5.0058766
  6. Neese, F.
     The SHARK Integral Generation and Digestion System
     J. Comp. Chem. 2022 44(3), 381
     doi.org/10.1002/jcc.26942

List of suggested additional citations. These are papers that are important in the 'surrounding' of 
of this run, or papers that preceded the highly important papers. If you like your results we are grateful for a citation.

  1. Izsak, R.; Neese, F.
     An overlap fitted chain of spheres exchange method
     J. Chem. Phys. 2011 135 , 144105
     doi.org/10.1063/1.3646921
  2. Izsak, R.; Hansen, A.; Neese, F.
     The resolution of identity and chain of spheres approximations for the LPNO-CCSD singles Fock term
     Molec. Phys. 2012 110 , 2413-2417
     doi.org/10.1080/00268976.2012.687466
  3. Neese, F.
     The ORCA program system
     WIRES Comput. Molec. Sci. 2012 2(1), 73-78
     doi.org/10.1002/wcms.81
  4. Izsak, R.; Neese, F.; Klopper, W.
     Robust fitting techniques in the chain of spheres approximation to the Fock exchange: The role of the complementary space
     J. Chem. Phys. 2013 139 , 
     doi.org/10.1063/1.4819264
  5. Neese, F.
     Software update: the ORCA program system, version 4.0
     WIRES Comput. Molec. Sci. 2018 8(1), 1-6
     doi.org/10.1002/wcms.1327
  6. Neese, F.; Wennmohs, F.; Becker, U.; Riplinger, C.
     The ORCA quantum chemistry program package
     J. Chem. Phys. 2020 152(22), 224108
     doi.org/10.1063/5.0004608
  7. Neese, F.
     Software update: The ORCA program system—Version 5.0
     WIRES Comput. Molec. Sci. 2022 12(1), e1606
     doi.org/10.1002/wcms.1606

List of optional additional citations

  1. Neese, F.
     Approximate second-order SCF convergence for spin unrestricted wavefunctions
     Chem. Phys. Lett. 2000 325(1-3), 93-98
     doi.org/10.1016/s0009-2614(00)00662-x

Timings for individual modules:

Sum of individual times          ...       11.535 sec (=   0.192 min)
Startup calculation              ...        0.982 sec (=   0.016 min)   8.5 %
SCF iterations                   ...        6.245 sec (=   0.104 min)  54.1 %
Property calculations            ...        0.470 sec (=   0.008 min)   4.1 %
SCF Gradient evaluation          ...        3.837 sec (=   0.064 min)  33.3 %
                             ****ORCA TERMINATED NORMALLY****
TOTAL RUN TIME: 0 days 0 hours 0 minutes 12 seconds 190 msec
