
                                 *****************
                                 * O   R   C   A *
                                 *****************

                                            #,                                       
                                            ###                                      
                                            ####                                     
                                            #####                                    
                                            ######                                   
                                           ########,                                 
                                     ,,################,,,,,                         
                               ,,#################################,,                 
                          ,,##########################################,,             
                       ,#########################################, ''#####,          
                    ,#############################################,,   '####,        
                  ,##################################################,,,,####,       
                ,###########''''           ''''###############################       
              ,#####''   ,,,,##########,,,,          '''####'''          '####       
            ,##' ,,,,###########################,,,                        '##       
           ' ,,###''''                  '''############,,,                           
         ,,##''                                '''############,,,,        ,,,,,,###''
      ,#''                                            '''#######################'''  
     '                                                          ''''####''''         
             ,#######,   #######,   ,#######,      ##                                
            ,#'     '#,  ##    ##  ,#'     '#,    #''#        ,####,    ,#,          
            ##       ##  ##   ,#'  ##            #'  '#       #'       ,# #          
            ##       ##  #######   ##           ,######,      #####,      #          
            '#,     ,#'  ##    ##  '#,     ,#' ,#      #,     #,   #      #          
             '#######'   ##     ##  '#######'  #'      '#     '####' #    #          



                #########################################################
                #                        -***-                          #
                #          Department of theory and spectroscopy        #
                #                                                       #
                #                      Frank Neese                      #
                #                                                       #
                #     Directorship, Architecture, Infrastructure        #
                #                    SHARK, DRIVERS                     #
                #        Core code/Algorithms in most modules           #
                #                                                       #
                #        Max Planck Institute fuer Kohlenforschung      #
                #                Kaiser Wilhelm Platz 1                 #
                #                 D-45470 Muelheim/Ruhr                 #
                #                      Germany                          #
                #                                                       #
                #                  All rights reserved                  #
                #                        -***-                          #
                #########################################################


                         Program Version 6.1.0  -  RELEASE   -
                                (GIT: $679e74b$)
                          ($2025-06-10 18:02:51 +0200$)


 With contributions from (in alphabetic order):
[Max-Planck-Institut fuer Kohlenforschung]                               
  Daniel Aravena         : Magnetic Suceptibility                        
  Michael Atanasov       : Ab Initio Ligand Field Theory (pilot matlab implementation)
  Alexander A. Auer      : GIAO ZORA, VPT2 properties, NMR spectrum      
  Ute Becker             : All parallelization in ORCA, NUMFREQ, NUMCALC 
  Giovanni Bistoni       : ED, misc. LED, open-shell LED, HFLD           
  Dmytro Bykov           : pre 5.0 version of the SCF Hessian            
  Marcos Casanova-Páez   : Triplet and SCS-CIS(D). UHF-(DLPNO)-IP/EA/STEOM-CCSD. UHF-CVS-IP/STEOM-CCSD   
  Vijay G. Chilkuri      : MRCI spin determinant printing, contributions to CSF-ICE 
  Pauline Colinet        : FMM embedding                                 
  Dipayan Datta          : RHF DLPNO-CCSD density                        
  Achintya Kumar Dutta   : EOM-CC, STEOM-CC                              
  Nicolas Foglia         : Exact transition moments, OPA infrastructure, MCD improvements    
  Dmitry Ganyushin       : Spin-Orbit,Spin-Spin,Magnetic field MRCI      
  Miquel Garcia-Rates    : C-PCM and meta-GGA Hessian, CCSD/C-PCM, Gaussian charge scheme 
  Tiago L. C. Gouveia    : GS-ROHF, GS-ROCIS                             
  Yang Guo               : DLPNO-NEVPT2, F12-NEVPT2, CIM, IAO-localization        
  Andreas Hansen         : Spin unrestricted coupled pair/coupled cluster methods 
  Ingolf Harden          : AUTO-CI MPn and infrastructure                
  Benjamin Helmich-Paris : MC-RPA, TRAH-(SCF,CASSCF), AVAS, COSX integrals, SCF dyn. polar., MC-PDFT, srDFT 
  Lee Huntington         : MR-EOM, pCC                                   
  Robert Izsak           : Overlap fitted RIJCOSX, COSX-SCS-MP3, EOM     
  Riya Kayal             : Wick's Theorem for AUTO-CI, AUTO-CI UHF-CCSDT 
  Emily Kempfer          : AUTO-CI RHF CISDT and CCSDT, approximate NEVPT4
  Christian Kollmar      : KDIIS, OOCD, Brueckner-CCSD(T), CCSD density, CASPT2, CASPT2-K, improved NEVPT2 
  Axel Koslowski         : Symmetry handling                             
  Simone Kossmann        : meta-GGA functionals, TD-DFT gradient, OOMP2, (MP2 Hessian; deprecated post 5.0) 
  Lucas Lang             : DCDCAS, Hyperfine gauge corrections, ICE-SOC+SSC
  Marvin Lechner         : AUTO-CI (C++ implementation), FIC-MRCC        
  Spencer Leger          : CASSCF response                               
  Dagmar Lenk            : GEPOL surface, SMD, ORCA-2-JSON               
  Dimitrios Liakos       : Extrapolation schemes; Compound Job, Property file
  Dimitrios Manganas     : Further ROCIS development; embedding schemes. LFT, Crystal Embedding 
  Dimitrios Pantazis     : SARC Basis sets                               
  Anastasios Papadopoulos: AUTO-CI, single reference methods and gradients 
  Taras Petrenko         : pre 6.0 DFT Hessian and TD-DFT gradient,  ECA, NRVS 
  Petra Pikulova         : Analytic Raman intensities                    
  Peter Pinski           : DLPNO-MP2, DLPNO-MP2 Gradient                 
  Shashank Vittal Rao    : ES-AILFT, MagRelax                            
  Christoph Reimann      : Effective Core Potentials                     
  Marius Retegan         : Local ZFS, SOC                                
  Christoph Riplinger    : Optimizer, TS searches, QM/MM, DLPNO-CCSD(T), (RO)-DLPNO pert. Triples 
  Michael Roemelt        : Original ROCIS implementation, recursive CI coupling coefficients
  Masaaki Saitow         : Open-shell DLPNO-CCSD energy and density      
  Barbara Sandhoefer     : DKH picture change effects                    
  Yorick L. A. Schmerwitz: GMF and freeze-and-release deltaSCF, NEB S-IDPP initial path                    
  Kantharuban Sivalingam : CASSCF convergence/infrastructure, NEVPT2, NEVPT3, NEVPT4(SD), FIC-MRCI and CEPA variants
  Bernardo de Souza      : ESD, SOC TD-DFT                               
  Georgi L. Stoychev     : AutoAux, RI-MP2 NMR, DLPNO-MP2 response, X2C  
  Van Anh Tran           : RI-MP2 g-tensors                              
  Willem Van den Heuvel  : Paramagnetic NMR                              
  Zikuan Wang            : NOTCH, Electric field optimization            
  Frank Wennmohs         : Technical directorship and infrastructure     
  Hang Xu                : AUTO-CI-Response properties                   
                                                                         
[FACCTs GmbH]                                                            
  Markus Bursch, Nicolas Foglia, Miquel Garcia-Rates, Ingolf Harden, Hagen Neugebauer, Anastasios Papadopoulos, 
  Christoph Riplinger, Bernardo de Souza, Georgi L. Stoychev                                                    
                                                                 
  APM, various basis sets, CI-OPT, improved COSX, DLPNO-Multilevel,           
  DOCKER, DRACO, updates on ESD, Fragmentator, GOAT, IRC, LR-CPCM, L-BFGS, MBIS, meta-GGA TD-DFT gradient, ML-optimized integration grids, 
  MM, NACMEs, nearIR, NEB, NEB-TS, NL-DFT gradient (VV10), 2- and 3-layer-ONIOM, interface openCOSMO-RS, QMMM,   
  Crystal-QMMM, RESP, rigid body optimization, SF, symmetry and pop. for TD-DFT, various functionals, SOLVATOR                                   
                                                                         
[Other institutions]                                                     
  V. Asgeirsson          : NEB                                           
  Christoph Bannwarth    : sTDA-DFT, sTD-DFT, PBEh-3c, B97-3c, D3        
  Giovanni Bistoni       : ETS/NOCV, ADLD/ADEX, COVALED                  
  Martin Brehm           : Molecular dynamics                            
  Ronald Cardenas        : ETS/NOCV                                      
  Martina Colucci        : COVALED                                       
  Sebastian Ehlert       : rSCAN, r2SCAN, r2SCAN-3c, D4, dhf basis sets  
  Marvin Friede          : D4 for Fr, Ra, Ac-Lr                          
  Lars Goerigk           : TD-DFT with DH, B97 family of functionals     
  Stefan Grimme          : VdW corrections, initial TS optimization, DFT functionals, gCP, sTDA/sTD-DF 
  Waldemar Hujo          : DFT-NL                                        
  H. Jonsson             : NEB                                           
  Holger Kruse           : gCP                                           
  Marcel Mueller         : wB97X-3c, vDZP basis set                      
  Hagen Neugebauer       : wr2SCAN, Native XTB                           
  Gianluca Regni         : ADLD/ADEX                                     
  Tobias Risthaus        : pre 6.0 range-separated hybrid DFT and stability analysis
  Lukas Wittmann         : regularized MP2, r2SCAN double-hybrids, wr2SCAN        
                                                                         
We gratefully acknowledge several colleagues who have allowed us to      
interface, adapt or use parts of their codes:                            
  Ed Valeev, F. Pavosevic, A. Kumar             : LibInt (2-el integral package), F12 methods 
  Garnet Chan, S. Sharma, J. Yang, R. Olivares  : DMRG                   
  Ulf Ekstrom                                   : XCFun DFT Library      
  Mihaly Kallay                                 : mrcc  (arbitrary order and MRCC methods)
  Frank Weinhold                                : gennbo (NPA and NBO analysis)           
  Simon Mueller                                 : openCOSMO-RS                            
  Christopher J. Cramer and Donald G. Truhlar   : smd solvation model                     
  S Lehtola, MJT Oliveira, MAL Marques          : LibXC Library                           
  Liviu Ungur et al                             : ANISO software                          


 Your calculation uses the libint2 library for the computation of 2-el integrals
 For citations please refer to: http://libint.valeyev.net

 Your ORCA version has been built with support for libXC version: 7.0.0
 For citations please refer to: https://libxc.gitlab.io

 This ORCA versions uses:
   CBLAS   interface :  Fast vector & matrix operations
   LAPACKE interface :  Fast linear algebra routines
   SCALAPACK package :  Parallel linear algebra routines
   Shared memory     :  Shared parallel matrices
   BLAS/LAPACK       :  OpenBLAS 0.3.29  USE64BITINT DYNAMIC_ARCH NO_AFFINITY Zen SINGLE_THREADED
        Core in use  :  Zen
   Copyright (c) 2011-2014, The OpenBLAS Project


  ***********************************
  * Starting time: Wed Sep 10 13:36:08 2025
  * Host name:     wyk-Server
  * Process ID:    2297621
  * Working dir.:  /home/wyk/Documents/code/openQDC/MGMR/singlepointcalc/71/sp
  ***********************************

Your calculation utilizes the atom-pairwise dispersion correction
with the Becke-Johnson damping scheme (D3BJ)


Warning: RI is on but no J-basis has been assigned. Assigning Def2/J (nothing to worry about!)
================================================================================

----- Orbital basis set information -----
Your calculation utilizes the basis: def2-SVP
   F. Weigend and R. Ahlrichs, Phys. Chem. Chem. Phys. 7, 3297 (2005).

----- AuxJ basis set information -----
Your calculation utilizes the auxiliary basis: def2/J
   H-Rn: F. Weigend, Phys. Chem. Chem. Phys. 8, 1057 (2006).
   Fr-Lr: K. Eichkorn, F. Weigend, O. Treutler, R. Ahlrichs; Theor. Chem. Acc. 97, 119 (1997).

================================================================================
                                        WARNINGS
                       Please study these warnings very carefully!
================================================================================


================================================================================
                                       INPUT FILE
================================================================================
NAME = orca.inp
|  1> ! B3LYP def2-SVP d3 EnGrad 
|  2> %pal nprocs 6 end 
|  3> *xyz 0 1 
|  4> C   -1.05346261651819 -1.85173935124537 -0.01525321404416
|  5> C   -1.65160286281243 -0.74020487507915 -0.47052016204171
|  6> C   -1.57584891676437 0.59795088550875 0.14106719518978
|  7> C   -0.48846773107233 1.15072060907111 0.71100575228502
|  8> C   1.54119796284441 0.38581223317373 0.60967724276397
|  9> C   2.00061212276803 0.38605978439748 -0.74222689047025
| 10> H   -2.28879265208743 -0.82014203991647 -1.36154440166209
| 11> H   -0.47227722938872 -1.84698811326973 0.91081961584749
| 12> H   -1.15522931085299 -2.80734025880193 -0.53698338449068
| 13> H   1.88352945935809 1.16778303755695 1.29042740554786
| 14> H   1.28319996765143 -0.55649083718508 1.09068091011565
| 15> H   1.85401994808336 -0.49320783004165 -1.36921287126261
| 16> H   2.49230269482315 1.2679657546405 -1.15378428731956
| 17> H   -0.5485554216759 2.16874991346415 1.12389107575782
| 18> H   0.69054513295463 0.8109183647719 -0.2892265349349
| 19> H   -2.51117054731074 1.1801527229548 0.06118254871836
| 20> *
| 21> 
| 22>                          ****END OF INPUT****
================================================================================

                     *******************************
                     * Energy+Gradient Calculation *
                     *******************************

---------------------------------
CARTESIAN COORDINATES (ANGSTROEM)
---------------------------------
  C     -1.053463   -1.851739   -0.015253
  C     -1.651603   -0.740205   -0.470520
  C     -1.575849    0.597951    0.141067
  C     -0.488468    1.150721    0.711006
  C      1.541198    0.385812    0.609677
  C      2.000612    0.386060   -0.742227
  H     -2.288793   -0.820142   -1.361544
  H     -0.472277   -1.846988    0.910820
  H     -1.155229   -2.807340   -0.536983
  H      1.883529    1.167783    1.290427
  H      1.283200   -0.556491    1.090681
  H      1.854020   -0.493208   -1.369213
  H      2.492303    1.267966   -1.153784
  H     -0.548555    2.168750    1.123891
  H      0.690545    0.810918   -0.289227
  H     -2.511171    1.180153    0.061183

----------------------------
CARTESIAN COORDINATES (A.U.)
----------------------------
  NO LB      ZA    FRAG     MASS         X           Y           Z
   0 C     6.0000    0    12.011   -1.990756   -3.499280   -0.028824
   1 C     6.0000    0    12.011   -3.121077   -1.398784   -0.889154
   2 C     6.0000    0    12.011   -2.977923    1.129963    0.266578
   3 C     6.0000    0    12.011   -0.923070    2.174547    1.343606
   4 C     6.0000    0    12.011    2.912442    0.729079    1.152123
   5 C     6.0000    0    12.011    3.780609    0.729547   -1.402606
   6 H     1.0000    0     1.008   -4.325191   -1.549844   -2.572946
   7 H     1.0000    0     1.008   -0.892475   -3.490302    1.721200
   8 H     1.0000    0     1.008   -2.183067   -5.305104   -1.014752
   9 H     1.0000    0     1.008    3.559355    2.206790    2.438554
  10 H     1.0000    0     1.008    2.424897   -1.051615    2.061088
  11 H     1.0000    0     1.008    3.503590   -0.932028   -2.587437
  12 H     1.0000    0     1.008    4.709770    2.396108   -2.180336
  13 H     1.0000    0     1.008   -1.036620    4.098343    2.123846
  14 H     1.0000    0     1.008    1.304941    1.532414   -0.546559
  15 H     1.0000    0     1.008   -4.745425    2.230165    0.115618

--------------------------------
INTERNAL COORDINATES (ANGSTROEM)
--------------------------------
 C      0   0   0     0.000000000000     0.00000000     0.00000000
 C      1   0   0     1.341845236934     0.00000000     0.00000000
 C      2   1   0     1.473240847744   126.06054642     0.00000000
 C      3   2   1     1.346395992696   126.16877682    38.47159810
 C      4   3   2     2.171380924532   126.19496368    10.87360567
 C      5   4   3     1.427832699260   110.17445266    62.94624377
 H      2   1   3     1.098328263075   118.26578633   182.21048780
 H      1   2   3     1.093348030015   121.38098284     2.63119693
 H      1   2   3     1.093495279072   121.36834381   180.52729008
 H      5   4   3     1.091828730408    90.66952992   184.65796093
 H      5   4   3     1.088973172276    93.59790032   299.50600111
 H      6   5   4     1.089822106396   120.08587552   269.12251881
 H      6   5   4     1.090365649633   120.17286126    88.64870776
 H      4   3   2     1.100212927348   119.64581707   179.09971778
 H      5   4   3     1.308569242220    46.36833251    61.92060773
 H      3   2   1     1.104611736691   113.90212336   215.71398191

---------------------------
INTERNAL COORDINATES (A.U.)
---------------------------
 C      0   0   0     0.000000000000     0.00000000     0.00000000
 C      1   0   0     2.535720011912     0.00000000     0.00000000
 C      2   1   0     2.784021731542   126.06054642     0.00000000
 C      3   2   1     2.544319694005   126.16877682    38.47159810
 C      4   3   2     4.103315279787   126.19496368    10.87360567
 C      5   4   3     2.698212766659   110.17445266    62.94624377
 H      2   1   3     2.075539622357   118.26578633   182.21048780
 H      1   2   3     2.066128345792   121.38098284     2.63119693
 H      1   2   3     2.066406606182   121.36834381   180.52729008
 H      5   4   3     2.063257285617    90.66952992   184.65796093
 H      5   4   3     2.057861062789    93.59790032   299.50600111
 H      6   5   4     2.059465315782   120.08587552   269.12251881
 H      6   5   4     2.060492463641   120.17286126    88.64870776
 H      4   3   2     2.079101121688   119.64581707   179.09971778
 H      5   4   3     2.472837495068    46.36833251    61.92060773
 H      3   2   1     2.087413666661   113.90212336   215.71398191

---------------------
BASIS SET INFORMATION
---------------------
There are 2 groups of distinct atoms

 Group   1 Type C   : 7s4p1d contracted to 3s2p1d pattern {511/31/1}
 Group   2 Type H   : 4s1p contracted to 2s1p pattern {31/1}

Atom   0C    basis set group =>   1
Atom   1C    basis set group =>   1
Atom   2C    basis set group =>   1
Atom   3C    basis set group =>   1
Atom   4C    basis set group =>   1
Atom   5C    basis set group =>   1
Atom   6H    basis set group =>   2
Atom   7H    basis set group =>   2
Atom   8H    basis set group =>   2
Atom   9H    basis set group =>   2
Atom  10H    basis set group =>   2
Atom  11H    basis set group =>   2
Atom  12H    basis set group =>   2
Atom  13H    basis set group =>   2
Atom  14H    basis set group =>   2
Atom  15H    basis set group =>   2
---------------------------------
AUXILIARY/J BASIS SET INFORMATION
---------------------------------
There are 2 groups of distinct atoms

 Group   1 Type C   : 12s5p4d2f1g contracted to 6s4p3d1f1g pattern {711111/2111/211/2/1}
 Group   2 Type H   : 5s2p1d contracted to 3s1p1d pattern {311/2/1}

Atom   0C    basis set group =>   1
Atom   1C    basis set group =>   1
Atom   2C    basis set group =>   1
Atom   3C    basis set group =>   1
Atom   4C    basis set group =>   1
Atom   5C    basis set group =>   1
Atom   6H    basis set group =>   2
Atom   7H    basis set group =>   2
Atom   8H    basis set group =>   2
Atom   9H    basis set group =>   2
Atom  10H    basis set group =>   2
Atom  11H    basis set group =>   2
Atom  12H    basis set group =>   2
Atom  13H    basis set group =>   2
Atom  14H    basis set group =>   2
Atom  15H    basis set group =>   2


           ************************************************************
           *        Program running with 6 parallel MPI-processes     *
           *              working on a common directory               *
           ************************************************************
------------------------------------------------------------------------------
                             ORCA STARTUP CALCULATIONS
                           -- RI-GTO INTEGRALS CHOSEN --
------------------------------------------------------------------------------
------------------------------------------------------------------------------
                   ___                                                        
                  /   \      - P O W E R E D   B Y -                         
                 /     \                                                     
                 |  |  |   _    _      __       _____    __    __             
                 |  |  |  | |  | |    /  \     |  _  \  |  |  /  |          
                  \  \/   | |  | |   /    \    | | | |  |  | /  /          
                 / \  \   | |__| |  /  /\  \   | |_| |  |  |/  /          
                |  |  |   |  __  | /  /__\  \  |    /   |      \           
                |  |  |   | |  | | |   __   |  |    \   |  |\   \          
                \     /   | |  | | |  |  |  |  | |\  \  |  | \   \       
                 \___/    |_|  |_| |__|  |__|  |_| \__\ |__|  \__/        
                                                                              
                      - O R C A' S   B I G   F R I E N D -                    
                                      &                                       
                       - I N T E G R A L  F E E D E R -                       
                                                                              
 v1 FN, 2020, v2 2021, v3 2022-2024                                           
------------------------------------------------------------------------------


----------------------
SHARK INTEGRAL PACKAGE
----------------------

Number of atoms                             ...     16
Number of basis functions                   ...    134
Number of shells                            ...     66
Maximum angular momentum                    ...      2
Integral batch strategy                     ... SHARK/LIBINT Hybrid
RI-J (if used) integral strategy            ... SPLIT-RIJ (Revised 2003 algorithm where possible)
Printlevel                                  ...      1
Contraction scheme used                     ... SEGMENTED contraction
Prescreening option                         ... SCHWARTZ
   Thresh                                   ... 2.500e-11
   Tcut                                     ... 2.500e-12
   Tpresel                                  ... 2.500e-12 
Coulomb Range Separation                    ... NOT USED
Exchange Range Separation                   ... NOT USED
Multipole approximations                    ... NOT USED
Finite Nucleus Model                        ... NOT USED
CABS basis                                  ... NOT available
Auxiliary Coulomb fitting basis             ... AVAILABLE
   # of basis functions in Aux-J            ...    404
   # of shells in Aux-J                     ...    140
   Maximum angular momentum in Aux-J        ...      4
Auxiliary J/K fitting basis                 ... NOT available
Auxiliary Correlation fitting basis         ... NOT available
Auxiliary 'external' fitting basis          ... NOT available

Checking pre-screening integrals            ... done (  0.0 sec) Dimension = 66
   => SHARK Basis and OBASIS are compatible. Storing Pre-screening
Shell pair information
Shell pair cut-off parameter TPreSel        ...   2.5e-12
Total number of shell pairs                 ...      2211
Shell pairs after pre-screening             ...      2142
Total number of primitive shell pairs       ...      7611
Primitive shell pairs kept                  ...      5633
          la=0 lb=0:    720 shell pairs
          la=1 lb=0:    805 shell pairs
          la=1 lb=1:    245 shell pairs
          la=2 lb=0:    220 shell pairs
          la=2 lb=1:    131 shell pairs
          la=2 lb=2:     21 shell pairs

Checking whether 4 symmetric matrices of dimension 134 fit in memory
:Max Core in MB      =   4096.00
 MB in use           =      6.03
 MB left             =   4089.97
 MB needed           =      0.28
 Data fit in memory  = YES
Calculating RI/J V-Matrix + Cholesky decomp.... done (  0.0 sec)
Calculating Nuclear repulsion               ... done (  0.0 sec) ENN=    212.960796806695 Eh

Diagonalization of the overlap matrix:
Smallest eigenvalue                        ... 1.948e-03
Time for diagonalization                   ...    0.003 sec
Threshold for overlap eigenvalues          ... 1.000e-07
Number of eigenvalues below threshold      ... 0
Time for construction of square roots      ...    0.001 sec
Total time needed                          ...    0.005 sec

-------------------
DFT GRID GENERATION
-------------------

General Integration Accuracy     IntAcc      ... 4.388
Radial Grid Type                 RadialGrid  ... OptM3 with GC (2021)
Angular Grid (max. ang.)         AngularGrid ... 4 (Lebedev-302)
Angular grid pruning method      GridPruning ... 4 (adaptive)
Weight generation scheme         WeightScheme... mBecke (2022)
Basis function cutoff            BFCut       ... 1.0000e-11
Integration weight cutoff        WCut        ... 1.0000e-14
Partially contracted basis set               ... off
Rotationally invariant grid construction     ... off
Angular grids for H and He will be reduced by one unit

Total number of grid points                  ...    68463
Total number of batches                      ...     1077
Average number of points per batch           ...       63
Average number of grid points per atom       ...     4279

--------------------
COSX GRID GENERATION
--------------------

GRIDX 1
-------
General Integration Accuracy     IntAcc      ... 3.816
Radial Grid Type                 RadialGrid  ... OptM3 with GC (2021)
Angular Grid (max. ang.)         AngularGrid ... 1 (Lebedev-50)
Angular grid pruning method      GridPruning ... 4 (adaptive)
Weight generation scheme         WeightScheme... mBecke (2022)
Basis function cutoff            BFCut       ... 1.0000e-11
Integration weight cutoff        WCut        ... 1.0000e-14
Partially contracted basis set               ... on
Rotationally invariant grid construction     ... off
Angular grids for H and He will be reduced by one unit

Total number of grid points                  ...     8807
Total number of batches                      ...       78
Average number of points per batch           ...      112
Average number of grid points per atom       ...      550
UseSFitting                                  ... on

GRIDX 2
-------
General Integration Accuracy     IntAcc      ... 4.020
Radial Grid Type                 RadialGrid  ... OptM3 with GC (2021)
Angular Grid (max. ang.)         AngularGrid ... 2 (Lebedev-110)
Angular grid pruning method      GridPruning ... 4 (adaptive)
Weight generation scheme         WeightScheme... mBecke (2022)
Basis function cutoff            BFCut       ... 1.0000e-11
Integration weight cutoff        WCut        ... 1.0000e-14
Partially contracted basis set               ... on
Rotationally invariant grid construction     ... off
Angular grids for H and He will be reduced by one unit

Total number of grid points                  ...    18484
Total number of batches                      ...      153
Average number of points per batch           ...      120
Average number of grid points per atom       ...     1155
UseSFitting                                  ... on

GRIDX 3
-------
General Integration Accuracy     IntAcc      ... 4.338
Radial Grid Type                 RadialGrid  ... OptM3 with GC (2021)
Angular Grid (max. ang.)         AngularGrid ... 3 (Lebedev-194)
Angular grid pruning method      GridPruning ... 4 (adaptive)
Weight generation scheme         WeightScheme... mBecke (2022)
Basis function cutoff            BFCut       ... 1.0000e-11
Integration weight cutoff        WCut        ... 1.0000e-14
Partially contracted basis set               ... on
Rotationally invariant grid construction     ... off
Angular grids for H and He will be reduced by one unit

Total number of grid points                  ...    40331
Total number of batches                      ...      325
Average number of points per batch           ...      124
Average number of grid points per atom       ...     2521
UseSFitting                                  ... on
Grids setup in   0.9 sec
Initializing property integral containers    ... done (  0.0 sec)

SHARK setup successfully completed in   1.0 seconds

Maximum memory used throughout the entire STARTUP-calculation: 18.2 MB


           ************************************************************
           *        Program running with 6 parallel MPI-processes     *
           *              working on a common directory               *
           ************************************************************
-------------------------------------------------------------------------------
                                 ORCA GUESS
                   Start orbitals & Density for SCF / CASSCF
-------------------------------------------------------------------------------

------------
SCF SETTINGS
------------
Hamiltonian:
 Density Functional     Method          .... DFT(GTOs)
 Exchange Functional    Exchange        .... B88
   X-Alpha parameter    XAlpha          ....  0.666667
   Becke's b parameter  XBeta           ....  0.004200
 Correlation Functional Correlation     .... LYP
 LDA part of GGA corr.  LDAOpt          .... VWN-5
 Gradients option       PostSCFGGA      .... off
 Hybrid DFT is turned on
   Fraction HF Exchange ScalHFX         ....  0.200000
   Scaling of DF-GGA-X  ScalDFX         ....  0.720000
   Scaling of DF-GGA-C  ScalDFC         ....  0.810000
   Scaling of DF-LDA-C  ScalLDAC        ....  1.000000
   Perturbative correction              ....  0.000000
   NL short-range parameter             ....  4.800000
 RI-approximation to the Coulomb term is turned on
   Number of AuxJ basis functions       .... 404
   RIJ-COSX (HFX calculated with COS-X)).... on


General Settings:
 Integral files         IntName         .... orca
 Hartree-Fock type      HFTyp           .... RHF
 Total Charge           Charge          ....    0
 Multiplicity           Mult            ....    1
 Number of Electrons    NEL             ....   46
 Basis Dimension        Dim             ....  134
 Nuclear Repulsion      ENuc            ....    212.9607968067 Eh

Convergence Acceleration:
 AO-DIIS                CNVDIIS         .... on
   Start iteration      DIISMaxIt       ....    12
   Startup error        DIISStart       ....  0.200000
   # of expansion vecs  DIISMaxEq       ....     5
   Bias factor          DIISBfac        ....   1.050
   Max. coefficient     DIISMaxC        ....  10.000
 MO-DIIS                CNVKDIIS        .... off
 Trust-Rad. Augm. Hess. CNVTRAH         .... auto
   Auto Start mean grad. ratio tolernc. ....  1.125000
   Auto Start start iteration           ....    50
   Auto Start num. interpolation iter.  ....    10
   Max. Number of Micro iterations      ....    24
   Max. Number of Macro iterations      .... Maxiter - #DIIS iter
   Number of Davidson start vectors     ....     2
   Converg. threshold    (grad. norm)   ....   1.000e-05
   Grad. Scal. Fac. for Micro threshold ....   0.100
   Minimum threshold for Micro iter.    ....   1.000e-02
   NR start threshold (gradient norm)   ....   1.000e-04
   Initial trust radius                 ....   0.400
   Minimum AH scaling param. (alpha)    ....   1.000
   Maximum AH scaling param. (alpha)    .... 1000.000
   Quad. conv. algorithm                .... NR
   White noise on init. David. guess    .... on
   Maximum white noise                  ....   0.010
   Pseudo random numbers                .... off
   Inactive MOs                         .... canonical
   Orbital update algorithm             .... Taylor
   Preconditioner                       .... Diag
   Full preconditioner red. dimension   ....   250
 SOSCF                 CNVSOSCF           .... on
   Start iteration     SOSCFMaxIt         ....   150
   Startup grad/error  SOSCFStart         ....  0.003300
   Hessian update      SOSCFHessUp        .... L-BFGS
   Autom. constraints  SOSCFAutoConstrain .... off
 Level Shifting         CNVShift        .... on
   Level shift para.    LevelShift      ....    0.2500
   Turn off err/grad.   ShiftErr        ....    0.0010
 Zerner damping         CNVZerner       .... off
 Static damping         CNVDamp         .... on
   Fraction old density DampFac         ....    0.7000
   Max. Damping (<1)    DampMax         ....    0.9800
   Min. Damping (>=0)   DampMin         ....    0.0000
   Turn off err/grad.   DampErr         ....    0.1000

SCF Procedure:
 Maximum # iterations   MaxIter         ....   125
 SCF integral mode      SCFMode         .... Direct
   Integral package                     .... SHARK and LIBINT hybrid scheme
 Reset frequency        DirectResetFreq ....    20
 Integral Threshold     Thresh          ....  2.500e-11 Eh
 Primitive CutOff       TCut            ....  2.500e-12 Eh

Convergence Tolerance:
 Convergence Check Mode ConvCheckMode   .... Total+1el-Energy
 Convergence forced     ConvForced      .... 0
 Energy Change          TolE            ....  1.000e-08 Eh
 1-El. energy change                    ....  1.000e-05 Eh
 Orbital Gradient       TolG            ....  1.000e-05
 Orbital Rotation angle TolX            ....  1.000e-05
 DIIS Error             TolErr          ....  5.000e-07

------------------------------
INITIAL GUESS: MODEL POTENTIAL
------------------------------
Loading Hartree-Fock densities                     ... done
Calculating cut-offs                               ... done
Initializing the effective Hamiltonian             ... done
Setting up the integral package (SHARK)            ... done
Starting the Coulomb interaction                   ... done (   0.0 sec)
Making the grid                                    ... done (   0.1 sec)
Mapping shells                                     ... done
Starting the XC term evaluation                    ... done (   0.0 sec)
  promolecular density results
     # of electrons  =     45.996545479
     EX              =    -33.703722192
     EC              =     -1.459665867
     EX+EC           =    -35.163388059
Transforming the Hamiltonian                       ... done (   0.0 sec)
Diagonalizing the Hamiltonian                      ... done (   0.0 sec)
Back transforming the eigenvectors                 ... done (   0.0 sec)
Now organizing SCF variables                       ... done
                      ------------------
                      INITIAL GUESS DONE (   0.2 sec)
                      ------------------
             **** ENERGY FILE WAS UPDATED (orca.en.tmp) ****
Finished Guess after   0.3 sec
Maximum memory used throughout the entire GUESS-calculation: 8.6 MB


           ************************************************************
           *        Program running with 6 parallel MPI-processes     *
           *              working on a common directory               *
           ************************************************************

-------------------------------------------------------------------------------------------
                                      ORCA LEAN-SCF
                              memory conserving SCF solver
-------------------------------------------------------------------------------------------

----------------------------------------D-I-I-S--------------------------------------------
Iteration    Energy (Eh)           Delta-E    RMSDP     MaxDP     DIISErr   Damp  Time(sec)
-------------------------------------------------------------------------------------------
               ***  Starting incremental Fock matrix formation  ***
    1    -233.9189451320677904     0.00e+00  8.33e-03  7.62e-02  1.65e-01  0.700   0.8
    2    -233.9966214830242848    -7.77e-02  6.39e-03  5.65e-02  8.82e-02  0.700   0.5
                               ***Turning on AO-DIIS***
    3    -234.0312087717322242    -3.46e-02  2.89e-03  2.58e-02  3.55e-02  0.700   0.5
    4    -234.0507971537939511    -1.96e-02  5.31e-03  4.49e-02  1.94e-02  0.000   0.5
    5    -234.0921291551962327    -4.13e-02  7.71e-04  6.38e-03  4.72e-03  0.000   0.5
                              *** Initializing SOSCF ***
---------------------------------------S-O-S-C-F--------------------------------------
Iteration    Energy (Eh)           Delta-E    RMSDP     MaxDP     MaxGrad    Time(sec)
--------------------------------------------------------------------------------------
    6    -234.0923571899476769    -2.28e-04  2.75e-04  1.94e-03  1.82e-03     0.5
               *** Restarting incremental Fock matrix formation ***
    7    -234.0923678443874678    -1.07e-05  2.46e-04  1.65e-03  2.70e-04     0.8
    8    -234.0923638982067132     3.95e-06  1.30e-04  1.17e-03  7.61e-04     0.6
    9    -234.0923705226235256    -6.62e-06  7.89e-05  8.53e-04  9.57e-05     0.6
   10    -234.0923703447060689     1.78e-07  3.89e-05  3.99e-04  1.15e-04     0.6
   11    -234.0923709143458495    -5.70e-07  1.94e-05  1.52e-04  4.63e-05     0.5
   12    -234.0923708799076621     3.44e-08  1.22e-05  9.01e-05  6.06e-05     0.5
   13    -234.0923709407688307    -6.09e-08  1.93e-06  2.11e-05  1.58e-06     0.5
                  *** Gradient check signals convergence ***

               *****************************************************
               *                     SUCCESS                       *
               *           SCF CONVERGED AFTER  13 CYCLES          *
               *****************************************************

Recomputing exchange energy using gridx3       ... done (    1.206 sec)
Old exchange energy                            :     -6.870708138 Eh
New exchange energy                            :     -6.870703053 Eh
Exchange energy change after final integration :      0.000005084 Eh
Total energy after final integration           :   -234.092365856 Eh
             **** ENERGY FILE WAS UPDATED (orca.en.tmp) ****

----------------
TOTAL SCF ENERGY
----------------

Total Energy       :       -234.09236585592174 Eh           -6369.97712 eV

Components:
Nuclear Repulsion  :        212.96079680669510 Eh            5794.95789 eV
Electronic Energy  :       -447.05316774703221 Eh          -12164.93515 eV
One Electron Energy:       -734.95747630513972 Eh          -19999.20967 eV
Two Electron Energy:        287.90430855810752 Eh            7834.27452 eV

Virial components:
Potential Energy   :       -465.40476423942107 Eh          -12664.30748 eV
Kinetic Energy     :        231.31239838349930 Eh            6294.33036 eV
Virial Ratio       :          2.01201823807046

DFT components:
N(Alpha)           :       23.000007930492 electrons
N(Beta)            :       23.000007930492 electrons
N(Total)           :       46.000015860985 electrons
E(X)               :      -27.280136580387 Eh       
E(C)               :       -1.737408555578 Eh       
E(XC)              :      -29.017545135966 Eh       

---------------
SCF CONVERGENCE
---------------

  Last Energy change         ...    6.0861e-08  Tolerance :   1.0000e-08
  Last MAX-Density change    ...    2.1052e-05  Tolerance :   1.0000e-07
  Last RMS-Density change    ...    1.9252e-06  Tolerance :   5.0000e-09
  Last DIIS Error            ...    1.8164e-03  Tolerance :   5.0000e-07
  Last Orbital Gradient      ...    1.5829e-06  Tolerance :   1.0000e-05
  Last Orbital Rotation      ...    7.7646e-06  Tolerance :   1.0000e-05


----------------
ORBITAL ENERGIES
----------------

  NO   OCC          E(Eh)            E(eV) 
   0   2.0000     -10.249928      -278.9147 
   1   2.0000     -10.190805      -277.3059 
   2   2.0000     -10.187792      -277.2239 
   3   2.0000     -10.184450      -277.1330 
   4   2.0000     -10.169691      -276.7314 
   5   2.0000     -10.162271      -276.5295 
   6   2.0000      -0.805122       -21.9085 
   7   2.0000      -0.778817       -21.1927 
   8   2.0000      -0.705219       -19.1900 
   9   2.0000      -0.601084       -16.3563 
  10   2.0000      -0.580807       -15.8045 
  11   2.0000      -0.508429       -13.8351 
  12   2.0000      -0.483968       -13.1694 
  13   2.0000      -0.469628       -12.7792 
  14   2.0000      -0.460321       -12.5260 
  15   2.0000      -0.416579       -11.3357 
  16   2.0000      -0.411391       -11.1945 
  17   2.0000      -0.372479       -10.1357 
  18   2.0000      -0.367215        -9.9924 
  19   2.0000      -0.346014        -9.4155 
  20   2.0000      -0.300765        -8.1842 
  21   2.0000      -0.233841        -6.3631 
  22   2.0000      -0.174110        -4.7378 
  23   0.0000      -0.030609        -0.8329 
  24   0.0000       0.001432         0.0390 
  25   0.0000       0.051124         1.3912 
  26   0.0000       0.070111         1.9078 
  27   0.0000       0.080635         2.1942 
  28   0.0000       0.087846         2.3904 
  29   0.0000       0.108559         2.9540 
  30   0.0000       0.118250         3.2178 
  31   0.0000       0.147377         4.0103 
  32   0.0000       0.152323         4.1449 
  33   0.0000       0.165474         4.5028 
*Only the first 10 virtual orbitals were printed.

                    ********************************
                    * MULLIKEN POPULATION ANALYSIS *
                    ********************************

-----------------------
MULLIKEN ATOMIC CHARGES
-----------------------
   0 C :   -0.033695
   1 C :   -0.037223
   2 C :   -0.000702
   3 C :   -0.258495
   4 C :    0.103080
   5 C :   -0.181217
   6 H :    0.003050
   7 H :    0.021910
   8 H :    0.022804
   9 H :    0.057343
  10 H :    0.059549
  11 H :    0.036471
  12 H :    0.032104
  13 H :    0.005128
  14 H :    0.169799
  15 H :    0.000095
Sum of atomic charges:   -0.0000000

--------------------------------
MULLIKEN REDUCED ORBITAL CHARGES
--------------------------------
  0 C s       :     3.111195  s :     3.111195
      pz      :     0.949330  p :     2.896031
      px      :     0.983059
      py      :     0.963642
      dz2     :     0.004409  d :     0.026468
      dxz     :     0.003651
      dyz     :     0.007300
      dx2y2   :     0.006379
      dxy     :     0.004729

  1 C s       :     3.133309  s :     3.133309
      pz      :     0.944732  p :     2.868292
      px      :     0.963611
      py      :     0.959950
      dz2     :     0.005831  d :     0.035622
      dxz     :     0.004552
      dyz     :     0.008888
      dx2y2   :     0.008745
      dxy     :     0.007605

  2 C s       :     3.110834  s :     3.110834
      pz      :     0.985612  p :     2.853229
      px      :     0.921504
      py      :     0.946113
      dz2     :     0.004318  d :     0.036639
      dxz     :     0.004569
      dyz     :     0.006182
      dx2y2   :     0.010827
      dxy     :     0.010742

  3 C s       :     3.288212  s :     3.288212
      pz      :     0.904593  p :     2.944632
      px      :     1.068604
      py      :     0.971435
      dz2     :     0.003821  d :     0.025651
      dxz     :     0.005547
      dyz     :     0.002274
      dx2y2   :     0.008996
      dxy     :     0.005013

  4 C s       :     3.108493  s :     3.108493
      pz      :     0.937408  p :     2.745670
      px      :     0.812750
      py      :     0.995512
      dz2     :     0.010204  d :     0.042757
      dxz     :     0.011063
      dyz     :     0.010778
      dx2y2   :     0.006625
      dxy     :     0.004087

  5 C s       :     3.109001  s :     3.109001
      pz      :     0.950329  p :     3.046264
      px      :     1.104292
      py      :     0.991643
      dz2     :     0.007331  d :     0.025952
      dxz     :     0.004983
      dyz     :     0.007834
      dx2y2   :     0.003502
      dxy     :     0.002302

  6 H s       :     0.974457  s :     0.974457
      pz      :     0.011172  p :     0.022494
      px      :     0.007683
      py      :     0.003639

  7 H s       :     0.954561  s :     0.954561
      pz      :     0.011813  p :     0.023529
      px      :     0.007484
      py      :     0.004232

  8 H s       :     0.953798  s :     0.953798
      pz      :     0.006721  p :     0.023398
      px      :     0.004593
      py      :     0.012084

  9 H s       :     0.920226  s :     0.920226
      pz      :     0.008214  p :     0.022432
      px      :     0.004617
      py      :     0.009601

 10 H s       :     0.917380  s :     0.917380
      pz      :     0.006068  p :     0.023071
      px      :     0.004670
      py      :     0.012333

 11 H s       :     0.938838  s :     0.938838
      pz      :     0.007616  p :     0.024691
      px      :     0.006040
      py      :     0.011035

 12 H s       :     0.943215  s :     0.943215
      pz      :     0.005675  p :     0.024681
      px      :     0.008498
      py      :     0.010507

 13 H s       :     0.971764  s :     0.971764
      pz      :     0.005805  p :     0.023107
      px      :     0.004607
      py      :     0.012695

 14 H s       :     0.775526  s :     0.775526
      pz      :     0.020721  p :     0.054675
      px      :     0.026822
      py      :     0.007132

 15 H s       :     0.977484  s :     0.977484
      pz      :     0.004127  p :     0.022421
      px      :     0.011559
      py      :     0.006735



                     *******************************
                     * LOEWDIN POPULATION ANALYSIS *
                     *******************************

----------------------
LOEWDIN ATOMIC CHARGES
----------------------
   0 C :   -0.050122
   1 C :   -0.033430
   2 C :   -0.052349
   3 C :   -0.183216
   4 C :    0.118309
   5 C :   -0.191954
   6 H :    0.027403
   7 H :    0.020303
   8 H :    0.023993
   9 H :    0.041730
  10 H :    0.038681
  11 H :    0.023215
  12 H :    0.022000
  13 H :    0.008380
  14 H :    0.165494
  15 H :    0.021562

-------------------------------
LOEWDIN REDUCED ORBITAL CHARGES
-------------------------------
  0 C s       :     2.888538  s :     2.888538
      pz      :     1.031637  p :     3.092911
      px      :     1.003739
      py      :     1.057536
      dz2     :     0.011762  d :     0.068674
      dxz     :     0.009549
      dyz     :     0.018791
      dx2y2   :     0.016555
      dxy     :     0.012016

  1 C s       :     2.877395  s :     2.877395
      pz      :     1.013910  p :     3.065493
      px      :     0.986519
      py      :     1.065063
      dz2     :     0.014565  d :     0.090542
      dxz     :     0.011565
      dyz     :     0.023180
      dx2y2   :     0.022873
      dxy     :     0.018359

  2 C s       :     2.880608  s :     2.880608
      pz      :     0.991314  p :     3.076359
      px      :     1.062009
      py      :     1.023036
      dz2     :     0.009692  d :     0.095381
      dxz     :     0.011407
      dyz     :     0.015395
      dx2y2   :     0.030506
      dxy     :     0.028381

  3 C s       :     3.020552  s :     3.020552
      pz      :     0.957520  p :     3.102329
      px      :     1.107090
      py      :     1.037719
      dz2     :     0.006978  d :     0.060335
      dxz     :     0.012636
      dyz     :     0.007319
      dx2y2   :     0.021463
      dxy     :     0.011939

  4 C s       :     2.869569  s :     2.869569
      pz      :     1.024711  p :     2.916182
      px      :     0.842321
      py      :     1.049150
      dz2     :     0.021059  d :     0.095940
      dxz     :     0.025789
      dyz     :     0.026685
      dx2y2   :     0.014009
      dxy     :     0.008398

  5 C s       :     2.872737  s :     2.872737
      pz      :     1.056768  p :     3.253509
      px      :     1.119550
      py      :     1.077192
      dz2     :     0.019984  d :     0.065707
      dxz     :     0.011404
      dyz     :     0.020872
      dx2y2   :     0.007667
      dxy     :     0.005781

  6 H s       :     0.907299  s :     0.907299
      pz      :     0.031844  p :     0.065298
      px      :     0.022224
      py      :     0.011230

  7 H s       :     0.911604  s :     0.911604
      pz      :     0.034670  p :     0.068092
      px      :     0.022399
      py      :     0.011024

  8 H s       :     0.908552  s :     0.908552
      pz      :     0.019794  p :     0.067455
      px      :     0.013735
      py      :     0.033926

  9 H s       :     0.891987  s :     0.891987
      pz      :     0.024093  p :     0.066283
      px      :     0.013646
      py      :     0.028543

 10 H s       :     0.892652  s :     0.892652
      pz      :     0.017340  p :     0.068666
      px      :     0.013586
      py      :     0.037741

 11 H s       :     0.901962  s :     0.901962
      pz      :     0.021557  p :     0.074822
      px      :     0.020274
      py      :     0.032991

 12 H s       :     0.903631  s :     0.903631
      pz      :     0.015816  p :     0.074369
      px      :     0.026798
      py      :     0.031755

 13 H s       :     0.918075  s :     0.918075
      pz      :     0.016624  p :     0.073545
      px      :     0.017660
      py      :     0.039261

 14 H s       :     0.676875  s :     0.676875
      pz      :     0.059208  p :     0.157631
      px      :     0.082571
      py      :     0.015852

 15 H s       :     0.911771  s :     0.911771
      pz      :     0.012822  p :     0.066667
      px      :     0.033631
      py      :     0.020213



                      *****************************
                      * MAYER POPULATION ANALYSIS *
                      *****************************

  NA   - Mulliken gross atomic population
  ZA   - Total nuclear charge
  QA   - Mulliken gross atomic charge
  VA   - Mayer's total valence
  BVA  - Mayer's bonded valence
  FA   - Mayer's free valence

  ATOM       NA         ZA         QA         VA         BVA        FA
  0 C      6.0337     6.0000    -0.0337     3.9522     3.9522    -0.0000
  1 C      6.0372     6.0000    -0.0372     4.0291     4.0291    -0.0000
  2 C      6.0007     6.0000    -0.0007     3.9612     3.9612    -0.0000
  3 C      6.2585     6.0000    -0.2585     3.6757     3.6757    -0.0000
  4 C      5.8969     6.0000     0.1031     3.9605     3.9605    -0.0000
  5 C      6.1812     6.0000    -0.1812     3.8518     3.8518     0.0000
  6 H      0.9970     1.0000     0.0030     0.9777     0.9777    -0.0000
  7 H      0.9781     1.0000     0.0219     0.9880     0.9880    -0.0000
  8 H      0.9772     1.0000     0.0228     0.9740     0.9740     0.0000
  9 H      0.9427     1.0000     0.0573     0.9690     0.9690    -0.0000
 10 H      0.9405     1.0000     0.0595     0.9810     0.9810    -0.0000
 11 H      0.9635     1.0000     0.0365     0.9929     0.9929     0.0000
 12 H      0.9679     1.0000     0.0321     0.9869     0.9869    -0.0000
 13 H      0.9949     1.0000     0.0051     0.9740     0.9740    -0.0000
 14 H      0.8302     1.0000     0.1698     1.0443     1.0443     0.0000
 15 H      0.9999     1.0000     0.0001     0.9735     0.9735    -0.0000

  Mayer bond orders larger than 0.100000
B(  0-C ,  1-C ) :   1.9576 B(  0-C ,  7-H ) :   0.9509 B(  0-C ,  8-H ) :   0.9487 
B(  1-C ,  2-C ) :   1.0715 B(  1-C ,  6-H ) :   0.9496 B(  2-C ,  3-C ) :   1.8445 
B(  2-C , 15-H ) :   0.9336 B(  3-C ,  4-C ) :   0.3701 B(  3-C ,  5-C ) :   0.2824 
B(  3-C , 13-H ) :   0.9129 B(  3-C , 14-H ) :   0.1748 B(  4-C ,  5-C ) :   1.1986 
B(  4-C ,  9-H ) :   0.9490 B(  4-C , 10-H ) :   0.9507 B(  4-C , 14-H ) :   0.4341 
B(  5-C , 11-H ) :   0.9669 B(  5-C , 12-H ) :   0.9682 B(  5-C , 14-H ) :   0.3690 


-------
TIMINGS
-------

Total SCF time: 0 days 0 hours 0 min 9 sec 

Total time                  ....       9.414 sec
Sum of individual times     ....       8.898 sec  ( 94.5%)

SCF preparation             ....       0.189 sec  (  2.0%)
Fock matrix formation       ....       8.457 sec  ( 89.8%)
  Startup                   ....       0.005 sec  (  0.1% of F)
  Split-RI-J                ....       0.719 sec  (  8.5% of F)
  Chain of spheres X        ....       6.395 sec  ( 75.6% of F)
  XC integration            ....       1.663 sec  ( 19.7% of F)
    XC Preparation          ....       0.000 sec  (  0.0% of XC)
    Basis function eval.    ....       0.511 sec  ( 30.7% of XC)
    Density eval.           ....       0.278 sec  ( 16.7% of XC)
    XC-Functional eval.     ....       0.096 sec  (  5.8% of XC)
    XC-Potential eval.      ....       0.315 sec  ( 19.0% of XC)
Diagonalization             ....       0.000 sec  (  0.0%)
Density matrix formation    ....       0.032 sec  (  0.3%)
Total Energy calculation    ....       0.018 sec  (  0.2%)
Population analysis         ....       0.020 sec  (  0.2%)
Orbital Transformation      ....       0.019 sec  (  0.2%)
Orbital Orthonormalization  ....       0.000 sec  (  0.0%)
DIIS solution               ....       0.096 sec  (  1.0%)
SOSCF solution              ....       0.067 sec  (  0.7%)
Finished LeanSCF after   9.4 sec

Maximum memory used throughout the entire LEANSCF-calculation: 12.0 MB


-------------------------------------------------------------------------------
                          DFT DISPERSION CORRECTION                            
                                                                               
                              DFTD3 V3.1  Rev 1                                
                          USING Becke-Johnson damping                          
-------------------------------------------------------------------------------
The B3LYP functional is recognized
Active option DFTDOPT                   ...         4   

molecular C6(AA) [au] = 2211.383133 


            DFT-D V3
 parameters
 s6 scaling factor         :     1.0000 
 a1 scaling factor         :     0.3981 
 s8 scaling factor         :     1.9889 
 a2 scaling factor         :     4.4211 
 ad hoc parameters k1-k3   :    16.0000     1.3333    -4.0000 

 Edisp/kcal,au: -13.682024060362  -0.021803690887 
 E6   /kcal   :  -6.656006229 
 E8   /kcal   :  -7.026017831 
 % E8         :  51.352181519 

-------------------------   ----------------
Dispersion correction           -0.021803691
-------------------------   ----------------


-------------------------   --------------------
FINAL SINGLE POINT ENERGY      -234.114169546808
-------------------------   --------------------



           ************************************************************
           *        Program running with 6 parallel MPI-processes     *
           *              working on a common directory               *
           ************************************************************
------------------------------------------------------------------------------
                         ORCA SCF GRADIENT CALCULATION
------------------------------------------------------------------------------

Nuc. rep. gradient        (SHARK) ... done (  0.0 sec)
HCore & Overlap gradient  (SHARK) ... done (  0.0 sec)
Split-RIJ-J gradient      (SHARK) ... done (  0.2 sec)
done (  4.5 sec)
XC gradient                       ... done (  0.9 sec)
Dispersion correction             ... done (  0.1 sec)

-------------------
DISPERSION GRADIENT
-------------------

   1   C   :   -0.000430330   -0.000759540   -0.000038485
   2   C   :   -0.000604169   -0.000236119   -0.000160461
   3   C   :   -0.000666233    0.000266738    0.000005185
   4   C   :    0.000504333    0.000315415   -0.000015614
   5   C   :    0.000127839    0.000363927    0.000096252
   6   C   :   -0.000807782    0.000601637    0.000210491
   7   H   :   -0.000177229   -0.000080997   -0.000157137
   8   H   :   -0.000083527   -0.000388996    0.000131836
   9   H   :   -0.000042981   -0.000230058   -0.000030330
  10   H   :    0.000202955    0.000067535    0.000139560
  11   H   :    0.000318127   -0.000068583    0.000204343
  12   H   :    0.000318067    0.000027751   -0.000187788
  13   H   :    0.000153421   -0.000003753   -0.000120393
  14   H   :   -0.000111924    0.000234507    0.000126246
  15   H   :    0.001485195   -0.000255739   -0.000210874
  16   H   :   -0.000185763    0.000146276    0.000007169

Difference to translation invariance:
           :    0.0000000000   -0.0000000000    0.0000000000

Difference to rotation invariance:
           :   -0.0000000000    0.0000000000   -0.0000000000

Norm of the Dispersion gradient    ...    0.0025363967
RMS gradient                       ...    0.0003660973
MAX gradient                       ...    0.0014851953

------------------
CARTESIAN GRADIENT
------------------

   1   C   :   -0.000050119    0.000103369    0.000110223
   2   C   :    0.000000632   -0.000077863    0.000068990
   3   C   :    0.000112344   -0.000035020   -0.000111165
   4   C   :   -0.000047890    0.000101919   -0.000048023
   5   C   :   -0.000012206    0.000015543    0.000009908
   6   C   :   -0.000067406   -0.000009940    0.000041262
   7   H   :   -0.000015987   -0.000012809    0.000007268
   8   H   :   -0.000037312    0.000005775   -0.000050123
   9   H   :    0.000041778    0.000022634   -0.000050168
  10   H   :   -0.000028851   -0.000099825   -0.000029024
  11   H   :    0.000043319    0.000021076    0.000016403
  12   H   :    0.000016026    0.000006622   -0.000033760
  13   H   :   -0.000003333    0.000058519    0.000028924
  14   H   :    0.000030981   -0.000080206   -0.000048512
  15   H   :    0.000026023   -0.000015857    0.000039529
  16   H   :   -0.000008000   -0.000003937    0.000048267

Difference to translation invariance:
           :    0.0000000000   -0.0000000000    0.0000000000

Difference to rotation invariance:
           :    0.0000049955   -0.0000586641    0.0000422468

Norm of the Cartesian gradient     ...    0.0003577274
RMS gradient                       ...    0.0000516335
MAX gradient                       ...    0.0001123443

-------
TIMINGS
-------

Total SCF gradient time     ....        5.718 sec

Densities                   ....       0.001 sec  (  0.0%)
One electron gradient       ....       0.045 sec  (  0.8%)
RI-J Coulomb gradient       ....       0.247 sec  (  4.3%)
COSX gradient               ....       4.481 sec  ( 78.4%)
XC gradient                 ....       0.889 sec  ( 15.6%)

Maximum memory used throughout the entire SCFGRAD-calculation: 28.5 MB


           ************************************************************
           *        Program running with 6 parallel MPI-processes     *
           *              working on a common directory               *
           ************************************************************

------------------------------------------------------------------------------
                              ORCA PROPERTY CALCULATIONS
------------------------------------------------------------------------------

GBWName                                 ... orca.gbw
Number of atoms                         ...     16
Number of basis functions               ...    134
Max core memory                         ...   4096 MB

Electric properties:
Dipole moment                           ... YES
Quadrupole moment                       ...  NO
Static polarizability (Dipole/Dipole)   ...  NO
Static polarizability (Dipole/Quad.)    ...  NO
Static polarizability (Quad./Quad.)     ...  NO
Static polarizability (Velocity)        ...  NO
Static hyperpolarizability              ...  NO

Atomic electric properties:
Dipole moment                           ...  NO
Quadrupole moment                       ...  NO
Static polarizability                   ...  NO

Choice of electric origin               ... Center of mass
Position of electric origin             ...    -0.310721    -0.018073     0.059166

General magnetic properties:
Magnetizability                         ...  NO

EPR properties:
g-Tensor (aka g-matrix)                 ...  NO
Zero-Field splitting spin-orbit         ...  NO
Zero-field splitting spin-spin          ...  NO
Hyperfine couplings                     ...  NO (   0 nuclei)
Quadrupole couplings                    ...  NO (   0 nuclei)
Contact density                         ...  NO (   0 nuclei)

NMR properties:
Chemical shifts                         ...  NO (   0 nuclei)
Spin-rotation constants                 ...  NO (   0 nuclei)
Spin-spin couplings                     ...  NO (   0 nuclei,    0 pairs)

Choice of magnetic origin               ... GIAO
Position of magnetic origin             ...     0.000000     0.000000     0.000000

Properties with geometric perturbations:
SCF Hessian                             ...  NO
IR spectrum                             ...  NO
VCD spectrum                            ...  NO
X-ray spectroscopy properties:
SCF XES/XAS/RIXS spectra                ...  NO

SCF SOC stabilization energy            ...  NO
Diagonal Born-Oppenheimer correction    ...  NO

-------------
DIPOLE MOMENT
-------------

Method             : SCF
Type of density    : Electron Density
Multiplicity       :   1
Irrep              :   0
Energy             :  -234.0923658559217415 Eh
Basis              : AO
                                X                 Y                 Z
Electronic contribution:     -2.568255957      -0.158855169       0.580862133
Nuclear contribution   :      2.694289316       0.156711113      -0.513037036
                        -----------------------------------------
Total Dipole Moment    :      0.126033359      -0.002144055       0.067825096
                        -----------------------------------------
Magnitude (a.u.)       :      0.143140659
Magnitude (Debye)      :      0.363834641



--------------------
Rotational spectrum 
--------------------
 
Rotational constants in cm-1:             0.157364             0.075364             0.059731 
Rotational constants in MHz :          4717.668832          2259.348124          1790.686536 

Dipole components along the rotational axes: 
x,y,z [a.u.] :     0.117596    -0.026161     0.077304 
x,y,z [Debye]:     0.298906    -0.066496     0.196491 

 

Dipole moment calculation done in   0.0 sec 

Maximum memory used throughout the entire PROP-calculation: 6.7 MB

--------------------------------
SUGGESTED CITATIONS FOR THIS RUN
--------------------------------

Below you find a list of papers that are relevant to this ORCA run
We neither can nor want to force you to cite these papers, but we appreciate if you do
You receive ORCA, which is the product of decades of hard work by many enthusiastic individuals, for free
The only thing we kindly ask in return is that you cite our papers,
We deeply appreciate it, if you show your appreciation for ORCA by not just citing the generic ORCA reference.

Please note that relegating all ORCA citations to the supporting information does *not* help us.
SI sections are not indexed - citations you put there will not count into any citation statistics
But we need these citations in order to attract the funding resources that allow us to do what we are doing

Therefore, if you are a happy ORCA user, please consider citing a few of the papers listed below in the main body of your paper

In addition to the list printed below, the program has created the file orca.bibtex that contains the list in bibtex format
You can import this file easily into all common literature databanks and citation aid programs


List of essential papers. We consider these as the minimum necessary citations

  1. Neese, F.
     Software update: the ORCA program system, version 6.0
     WIRES Comput. Molec. Sci. 2025 15(1), e70019
     doi.org/10.1002/wcms.7019

List of papers to cite with high priority. The work reported in these papers was absolutely
necessary for this run to complete.
Our perspective: the developers of density functionals and basis sets usually get cited in chemistry papers
Good! But without the algorithms to do something with them, the functionals or basis sets would not do anything.
Hence, in our opinion, the algorithm design and method developments papers are equally worthy of getting cited

  1. Neese, F.
     An improvement of the resolution of the identity approximation for the formation of the Coulomb matrix
     J. Comp. Chem. 2003 24(14), 1740-1747
     doi.org/10.1002/jcc.10318
  2. Neese, F.; Wennmohs, F.; Hansen, A.; Becker, U.
     Efficient, approximate and parallel Hartree-Fock and hybrid DFT calculations. A 'chain-of-spheres' algorithm for the Hartree-Fock exchange
     Chem. Phys. 2009 356(1-3), 98-109
     doi.org/10.1016/j.chemphys.2008.10.036
  3. Grimme, S.; Antony, J.; Ehrlich, S.; Krieg, H.
     A consistent and accurate ab initio parametrization of density functional dispersion correction (DFT-D) for the 94 elements H-Pu
     J. Chem. Phys. 2010 132 , 154104
     doi.org/10.1063/1.3382344
  4. Grimme, S.; Ehrlich, S.; Goerigk, L.
     Effect of the damping function in dispersion corrected density functional theory
     J. Comput. Chem. 2011 32(7), 1456-1465
     doi.org/10.1002/jcc.21759
  5. Helmich-Paris, B.; de Souza, B.; Neese, F.; Izsák, R.
     An improved chain of spheres for exchange algorithm
     J. Chem. Phys. 2021 155(10), 104109
     doi.org/10.1063/5.0058766
  6. Neese, F.
     The SHARK Integral Generation and Digestion System
     J. Comp. Chem. 2022 44(3), 381
     doi.org/10.1002/jcc.26942

List of suggested additional citations. These are papers that are important in the 'surrounding' of 
of this run, or papers that preceded the highly important papers. If you like your results we are grateful for a citation.

  1. Izsak, R.; Neese, F.
     An overlap fitted chain of spheres exchange method
     J. Chem. Phys. 2011 135 , 144105
     doi.org/10.1063/1.3646921
  2. Izsak, R.; Hansen, A.; Neese, F.
     The resolution of identity and chain of spheres approximations for the LPNO-CCSD singles Fock term
     Molec. Phys. 2012 110 , 2413-2417
     doi.org/10.1080/00268976.2012.687466
  3. Neese, F.
     The ORCA program system
     WIRES Comput. Molec. Sci. 2012 2(1), 73-78
     doi.org/10.1002/wcms.81
  4. Izsak, R.; Neese, F.; Klopper, W.
     Robust fitting techniques in the chain of spheres approximation to the Fock exchange: The role of the complementary space
     J. Chem. Phys. 2013 139 , 
     doi.org/10.1063/1.4819264
  5. Neese, F.
     Software update: the ORCA program system, version 4.0
     WIRES Comput. Molec. Sci. 2018 8(1), 1-6
     doi.org/10.1002/wcms.1327
  6. Neese, F.; Wennmohs, F.; Becker, U.; Riplinger, C.
     The ORCA quantum chemistry program package
     J. Chem. Phys. 2020 152(22), 224108
     doi.org/10.1063/5.0004608
  7. Neese, F.
     Software update: The ORCA program system—Version 5.0
     WIRES Comput. Molec. Sci. 2022 12(1), e1606
     doi.org/10.1002/wcms.1606

List of optional additional citations

  1. Neese, F.
     Approximate second-order SCF convergence for spin unrestricted wavefunctions
     Chem. Phys. Lett. 2000 325(1-3), 93-98
     doi.org/10.1016/s0009-2614(00)00662-x

Timings for individual modules:

Sum of individual times          ...       18.416 sec (=   0.307 min)
Startup calculation              ...        1.359 sec (=   0.023 min)   7.4 %
SCF iterations                   ...       10.419 sec (=   0.174 min)  56.6 %
Property calculations            ...        0.445 sec (=   0.007 min)   2.4 %
SCF Gradient evaluation          ...        6.194 sec (=   0.103 min)  33.6 %
                             ****ORCA TERMINATED NORMALLY****
TOTAL RUN TIME: 0 days 0 hours 0 minutes 19 seconds 27 msec
