
                                 *****************
                                 * O   R   C   A *
                                 *****************

                                            #,                                       
                                            ###                                      
                                            ####                                     
                                            #####                                    
                                            ######                                   
                                           ########,                                 
                                     ,,################,,,,,                         
                               ,,#################################,,                 
                          ,,##########################################,,             
                       ,#########################################, ''#####,          
                    ,#############################################,,   '####,        
                  ,##################################################,,,,####,       
                ,###########''''           ''''###############################       
              ,#####''   ,,,,##########,,,,          '''####'''          '####       
            ,##' ,,,,###########################,,,                        '##       
           ' ,,###''''                  '''############,,,                           
         ,,##''                                '''############,,,,        ,,,,,,###''
      ,#''                                            '''#######################'''  
     '                                                          ''''####''''         
             ,#######,   #######,   ,#######,      ##                                
            ,#'     '#,  ##    ##  ,#'     '#,    #''#        ,####,    ,#,          
            ##       ##  ##   ,#'  ##            #'  '#       #'       ,# #          
            ##       ##  #######   ##           ,######,      #####,      #          
            '#,     ,#'  ##    ##  '#,     ,#' ,#      #,     #,   #      #          
             '#######'   ##     ##  '#######'  #'      '#     '####' #    #          



                #########################################################
                #                        -***-                          #
                #          Department of theory and spectroscopy        #
                #                                                       #
                #                      Frank Neese                      #
                #                                                       #
                #     Directorship, Architecture, Infrastructure        #
                #                    SHARK, DRIVERS                     #
                #        Core code/Algorithms in most modules           #
                #                                                       #
                #        Max Planck Institute fuer Kohlenforschung      #
                #                Kaiser Wilhelm Platz 1                 #
                #                 D-45470 Muelheim/Ruhr                 #
                #                      Germany                          #
                #                                                       #
                #                  All rights reserved                  #
                #                        -***-                          #
                #########################################################


                         Program Version 6.1.0  -  RELEASE   -
                                (GIT: $679e74b$)
                          ($2025-06-10 18:02:51 +0200$)


 With contributions from (in alphabetic order):
[Max-Planck-Institut fuer Kohlenforschung]                               
  Daniel Aravena         : Magnetic Suceptibility                        
  Michael Atanasov       : Ab Initio Ligand Field Theory (pilot matlab implementation)
  Alexander A. Auer      : GIAO ZORA, VPT2 properties, NMR spectrum      
  Ute Becker             : All parallelization in ORCA, NUMFREQ, NUMCALC 
  Giovanni Bistoni       : ED, misc. LED, open-shell LED, HFLD           
  Dmytro Bykov           : pre 5.0 version of the SCF Hessian            
  Marcos Casanova-Páez   : Triplet and SCS-CIS(D). UHF-(DLPNO)-IP/EA/STEOM-CCSD. UHF-CVS-IP/STEOM-CCSD   
  Vijay G. Chilkuri      : MRCI spin determinant printing, contributions to CSF-ICE 
  Pauline Colinet        : FMM embedding                                 
  Dipayan Datta          : RHF DLPNO-CCSD density                        
  Achintya Kumar Dutta   : EOM-CC, STEOM-CC                              
  Nicolas Foglia         : Exact transition moments, OPA infrastructure, MCD improvements    
  Dmitry Ganyushin       : Spin-Orbit,Spin-Spin,Magnetic field MRCI      
  Miquel Garcia-Rates    : C-PCM and meta-GGA Hessian, CCSD/C-PCM, Gaussian charge scheme 
  Tiago L. C. Gouveia    : GS-ROHF, GS-ROCIS                             
  Yang Guo               : DLPNO-NEVPT2, F12-NEVPT2, CIM, IAO-localization        
  Andreas Hansen         : Spin unrestricted coupled pair/coupled cluster methods 
  Ingolf Harden          : AUTO-CI MPn and infrastructure                
  Benjamin Helmich-Paris : MC-RPA, TRAH-(SCF,CASSCF), AVAS, COSX integrals, SCF dyn. polar., MC-PDFT, srDFT 
  Lee Huntington         : MR-EOM, pCC                                   
  Robert Izsak           : Overlap fitted RIJCOSX, COSX-SCS-MP3, EOM     
  Riya Kayal             : Wick's Theorem for AUTO-CI, AUTO-CI UHF-CCSDT 
  Emily Kempfer          : AUTO-CI RHF CISDT and CCSDT, approximate NEVPT4
  Christian Kollmar      : KDIIS, OOCD, Brueckner-CCSD(T), CCSD density, CASPT2, CASPT2-K, improved NEVPT2 
  Axel Koslowski         : Symmetry handling                             
  Simone Kossmann        : meta-GGA functionals, TD-DFT gradient, OOMP2, (MP2 Hessian; deprecated post 5.0) 
  Lucas Lang             : DCDCAS, Hyperfine gauge corrections, ICE-SOC+SSC
  Marvin Lechner         : AUTO-CI (C++ implementation), FIC-MRCC        
  Spencer Leger          : CASSCF response                               
  Dagmar Lenk            : GEPOL surface, SMD, ORCA-2-JSON               
  Dimitrios Liakos       : Extrapolation schemes; Compound Job, Property file
  Dimitrios Manganas     : Further ROCIS development; embedding schemes. LFT, Crystal Embedding 
  Dimitrios Pantazis     : SARC Basis sets                               
  Anastasios Papadopoulos: AUTO-CI, single reference methods and gradients 
  Taras Petrenko         : pre 6.0 DFT Hessian and TD-DFT gradient,  ECA, NRVS 
  Petra Pikulova         : Analytic Raman intensities                    
  Peter Pinski           : DLPNO-MP2, DLPNO-MP2 Gradient                 
  Shashank Vittal Rao    : ES-AILFT, MagRelax                            
  Christoph Reimann      : Effective Core Potentials                     
  Marius Retegan         : Local ZFS, SOC                                
  Christoph Riplinger    : Optimizer, TS searches, QM/MM, DLPNO-CCSD(T), (RO)-DLPNO pert. Triples 
  Michael Roemelt        : Original ROCIS implementation, recursive CI coupling coefficients
  Masaaki Saitow         : Open-shell DLPNO-CCSD energy and density      
  Barbara Sandhoefer     : DKH picture change effects                    
  Yorick L. A. Schmerwitz: GMF and freeze-and-release deltaSCF, NEB S-IDPP initial path                    
  Kantharuban Sivalingam : CASSCF convergence/infrastructure, NEVPT2, NEVPT3, NEVPT4(SD), FIC-MRCI and CEPA variants
  Bernardo de Souza      : ESD, SOC TD-DFT                               
  Georgi L. Stoychev     : AutoAux, RI-MP2 NMR, DLPNO-MP2 response, X2C  
  Van Anh Tran           : RI-MP2 g-tensors                              
  Willem Van den Heuvel  : Paramagnetic NMR                              
  Zikuan Wang            : NOTCH, Electric field optimization            
  Frank Wennmohs         : Technical directorship and infrastructure     
  Hang Xu                : AUTO-CI-Response properties                   
                                                                         
[FACCTs GmbH]                                                            
  Markus Bursch, Nicolas Foglia, Miquel Garcia-Rates, Ingolf Harden, Hagen Neugebauer, Anastasios Papadopoulos, 
  Christoph Riplinger, Bernardo de Souza, Georgi L. Stoychev                                                    
                                                                 
  APM, various basis sets, CI-OPT, improved COSX, DLPNO-Multilevel,           
  DOCKER, DRACO, updates on ESD, Fragmentator, GOAT, IRC, LR-CPCM, L-BFGS, MBIS, meta-GGA TD-DFT gradient, ML-optimized integration grids, 
  MM, NACMEs, nearIR, NEB, NEB-TS, NL-DFT gradient (VV10), 2- and 3-layer-ONIOM, interface openCOSMO-RS, QMMM,   
  Crystal-QMMM, RESP, rigid body optimization, SF, symmetry and pop. for TD-DFT, various functionals, SOLVATOR                                   
                                                                         
[Other institutions]                                                     
  V. Asgeirsson          : NEB                                           
  Christoph Bannwarth    : sTDA-DFT, sTD-DFT, PBEh-3c, B97-3c, D3        
  Giovanni Bistoni       : ETS/NOCV, ADLD/ADEX, COVALED                  
  Martin Brehm           : Molecular dynamics                            
  Ronald Cardenas        : ETS/NOCV                                      
  Martina Colucci        : COVALED                                       
  Sebastian Ehlert       : rSCAN, r2SCAN, r2SCAN-3c, D4, dhf basis sets  
  Marvin Friede          : D4 for Fr, Ra, Ac-Lr                          
  Lars Goerigk           : TD-DFT with DH, B97 family of functionals     
  Stefan Grimme          : VdW corrections, initial TS optimization, DFT functionals, gCP, sTDA/sTD-DF 
  Waldemar Hujo          : DFT-NL                                        
  H. Jonsson             : NEB                                           
  Holger Kruse           : gCP                                           
  Marcel Mueller         : wB97X-3c, vDZP basis set                      
  Hagen Neugebauer       : wr2SCAN, Native XTB                           
  Gianluca Regni         : ADLD/ADEX                                     
  Tobias Risthaus        : pre 6.0 range-separated hybrid DFT and stability analysis
  Lukas Wittmann         : regularized MP2, r2SCAN double-hybrids, wr2SCAN        
                                                                         
We gratefully acknowledge several colleagues who have allowed us to      
interface, adapt or use parts of their codes:                            
  Ed Valeev, F. Pavosevic, A. Kumar             : LibInt (2-el integral package), F12 methods 
  Garnet Chan, S. Sharma, J. Yang, R. Olivares  : DMRG                   
  Ulf Ekstrom                                   : XCFun DFT Library      
  Mihaly Kallay                                 : mrcc  (arbitrary order and MRCC methods)
  Frank Weinhold                                : gennbo (NPA and NBO analysis)           
  Simon Mueller                                 : openCOSMO-RS                            
  Christopher J. Cramer and Donald G. Truhlar   : smd solvation model                     
  S Lehtola, MJT Oliveira, MAL Marques          : LibXC Library                           
  Liviu Ungur et al                             : ANISO software                          


 Your calculation uses the libint2 library for the computation of 2-el integrals
 For citations please refer to: http://libint.valeyev.net

 Your ORCA version has been built with support for libXC version: 7.0.0
 For citations please refer to: https://libxc.gitlab.io

 This ORCA versions uses:
   CBLAS   interface :  Fast vector & matrix operations
   LAPACKE interface :  Fast linear algebra routines
   SCALAPACK package :  Parallel linear algebra routines
   Shared memory     :  Shared parallel matrices
   BLAS/LAPACK       :  OpenBLAS 0.3.29  USE64BITINT DYNAMIC_ARCH NO_AFFINITY Zen SINGLE_THREADED
        Core in use  :  Zen
   Copyright (c) 2011-2014, The OpenBLAS Project


  ***********************************
  * Starting time: Wed Sep 10 13:33:18 2025
  * Host name:     wyk-Server
  * Process ID:    2271941
  * Working dir.:  /home/wyk/Documents/code/openQDC/MGMR/singlepointcalc/10/sp
  ***********************************

Your calculation utilizes the atom-pairwise dispersion correction
with the Becke-Johnson damping scheme (D3BJ)


Warning: RI is on but no J-basis has been assigned. Assigning Def2/J (nothing to worry about!)
================================================================================

----- Orbital basis set information -----
Your calculation utilizes the basis: def2-SVP
   F. Weigend and R. Ahlrichs, Phys. Chem. Chem. Phys. 7, 3297 (2005).

----- AuxJ basis set information -----
Your calculation utilizes the auxiliary basis: def2/J
   H-Rn: F. Weigend, Phys. Chem. Chem. Phys. 8, 1057 (2006).
   Fr-Lr: K. Eichkorn, F. Weigend, O. Treutler, R. Ahlrichs; Theor. Chem. Acc. 97, 119 (1997).

================================================================================
                                        WARNINGS
                       Please study these warnings very carefully!
================================================================================


================================================================================
                                       INPUT FILE
================================================================================
NAME = orca.inp
|  1> ! B3LYP def2-SVP d3 EnGrad 
|  2> %pal nprocs 6 end 
|  3> *xyz 0 1 
|  4> N   1.23520576104867 -0.68139009384895 0.63904762768958
|  5> B   1.80732946230705 0.57081707880701 -0.10788949149011
|  6> B   -2.45361071243863 -0.4434206054254 -0.44648228773589
|  7> N   -1.77060124770989 0.53066702558426 0.2772207791572
|  8> H   0.23354062627142 -0.70183078553303 0.81123348073269
|  9> H   1.77861786034765 -1.06380181931779 1.40541980642153
| 10> H   1.7064609716181 -0.69783332374913 -0.68487062253279
| 11> H   2.89857760730882 0.94232546358036 0.25600914128983
| 12> H   2.08425167637052 -0.04058638549445 -1.3284808414101
| 13> H   0.99046713882202 1.40990135694997 -0.4267479170282
| 14> H   -2.0659612637955 -0.72688785977862 -1.55456750494392
| 15> H   -3.40806194832856 -0.98989474371763 0.05331801540413
| 16> H   -2.05671971147207 0.84050693441976 1.1999084884457
| 17> H   -0.97949622034958 1.05142775752363 -0.09311867399965
| 18> *
| 19> 
| 20>                          ****END OF INPUT****
================================================================================

                     *******************************
                     * Energy+Gradient Calculation *
                     *******************************

---------------------------------
CARTESIAN COORDINATES (ANGSTROEM)
---------------------------------
  N      1.235206   -0.681390    0.639048
  B      1.807329    0.570817   -0.107889
  B     -2.453611   -0.443421   -0.446482
  N     -1.770601    0.530667    0.277221
  H      0.233541   -0.701831    0.811233
  H      1.778618   -1.063802    1.405420
  H      1.706461   -0.697833   -0.684871
  H      2.898578    0.942325    0.256009
  H      2.084252   -0.040586   -1.328481
  H      0.990467    1.409901   -0.426748
  H     -2.065961   -0.726888   -1.554568
  H     -3.408062   -0.989895    0.053318
  H     -2.056720    0.840507    1.199908
  H     -0.979496    1.051428   -0.093119

----------------------------
CARTESIAN COORDINATES (A.U.)
----------------------------
  NO LB      ZA    FRAG     MASS         X           Y           Z
   0 N     7.0000    0    14.007    2.334201   -1.287641    1.207625
   1 B     5.0000    0    10.810    3.415358    1.078688   -0.203882
   2 B     5.0000    0    10.810   -4.636652   -0.837944   -0.843729
   3 N     7.0000    0    14.007   -3.345951    1.002815    0.523871
   4 H     1.0000    0     1.008    0.441328   -1.326268    1.533009
   5 H     1.0000    0     1.008    3.361101   -2.010294    2.655859
   6 H     1.0000    0     1.008    3.224744   -1.318714   -1.294218
   7 H     1.0000    0     1.008    5.477518    1.780737    0.483787
   8 H     1.0000    0     1.008    3.938665   -0.076697   -2.510465
   9 H     1.0000    0     1.008    1.871712    2.664327   -0.806437
  10 H     1.0000    0     1.008   -3.904101   -1.373619   -2.937707
  11 H     1.0000    0     1.008   -6.440304   -1.870630    0.100756
  12 H     1.0000    0     1.008   -3.886637    1.588328    2.267498
  13 H     1.0000    0     1.008   -1.850980    1.986911   -0.175969

--------------------------------
INTERNAL COORDINATES (ANGSTROEM)
--------------------------------
 N      0   0   0     0.000000000000     0.00000000     0.00000000
 B      1   0   0     1.566289689936     0.00000000     0.00000000
 B      1   2   0     3.852579869357    99.55497640     0.00000000
 N      3   1   2     1.392513831467    55.04967662   299.29327033
 H      1   2   3     1.016562261789   117.17891758   338.94449104
 H      1   2   3     1.014328227831   117.77669396   198.68787906
 H      2   1   3     1.397338728404    56.26850922   272.60025859
 H      2   1   3     1.208827203891   115.58742588   164.85110237
 H      7   2   1     0.994451340331    68.88556858   179.27435233
 H      2   1   3     1.213670950832   115.60502654    20.51075021
 H      3   1   2     1.207674885024    86.37012205    68.75311274
 H      3   1   2     1.208061045036   127.73211303   196.96960324
 H      4   3   1     1.014503402303   123.22877011   239.63790318
 H      4   3   1     1.016951431883   123.40178404    64.43888992

---------------------------
INTERNAL COORDINATES (A.U.)
---------------------------
 N      0   0   0     0.000000000000     0.00000000     0.00000000
 B      1   0   0     2.959858560364     0.00000000     0.00000000
 B      1   2   0     7.280320862143    99.55497640     0.00000000
 N      3   1   2     2.631469779169    55.04967662   299.29327033
 H      1   2   3     1.921024272860   117.17891758   338.94449104
 H      1   2   3     1.916802560506   117.77669396   198.68787906
 H      2   1   3     2.640587513006    56.26850922   272.60025859
 H      2   1   3     2.284352358587   115.58742588   164.85110237
 H      7   2   1     1.879240686736    68.88556858   179.27435233
 H      2   1   3     2.293505713768   115.60502654    20.51075021
 H      3   1   2     2.282174791511    86.37012205    68.75311274
 H      3   1   2     2.282904528176   127.73211303   196.96960324
 H      4   3   1     1.917133592284   123.22877011   239.63790318
 H      4   3   1     1.921759697758   123.40178404    64.43888992

---------------------
BASIS SET INFORMATION
---------------------
There are 3 groups of distinct atoms

 Group   1 Type N   : 7s4p1d contracted to 3s2p1d pattern {511/31/1}
 Group   2 Type B   : 7s4p1d contracted to 3s2p1d pattern {511/31/1}
 Group   3 Type H   : 4s1p contracted to 2s1p pattern {31/1}

Atom   0N    basis set group =>   1
Atom   1B    basis set group =>   2
Atom   2B    basis set group =>   2
Atom   3N    basis set group =>   1
Atom   4H    basis set group =>   3
Atom   5H    basis set group =>   3
Atom   6H    basis set group =>   3
Atom   7H    basis set group =>   3
Atom   8H    basis set group =>   3
Atom   9H    basis set group =>   3
Atom  10H    basis set group =>   3
Atom  11H    basis set group =>   3
Atom  12H    basis set group =>   3
Atom  13H    basis set group =>   3
---------------------------------
AUXILIARY/J BASIS SET INFORMATION
---------------------------------
There are 3 groups of distinct atoms

 Group   1 Type N   : 12s5p4d2f1g contracted to 6s4p3d1f1g pattern {711111/2111/211/2/1}
 Group   2 Type B   : 12s5p4d2f1g contracted to 6s4p3d1f1g pattern {711111/2111/211/2/1}
 Group   3 Type H   : 5s2p1d contracted to 3s1p1d pattern {311/2/1}

Atom   0N    basis set group =>   1
Atom   1B    basis set group =>   2
Atom   2B    basis set group =>   2
Atom   3N    basis set group =>   1
Atom   4H    basis set group =>   3
Atom   5H    basis set group =>   3
Atom   6H    basis set group =>   3
Atom   7H    basis set group =>   3
Atom   8H    basis set group =>   3
Atom   9H    basis set group =>   3
Atom  10H    basis set group =>   3
Atom  11H    basis set group =>   3
Atom  12H    basis set group =>   3
Atom  13H    basis set group =>   3


           ************************************************************
           *        Program running with 6 parallel MPI-processes     *
           *              working on a common directory               *
           ************************************************************
------------------------------------------------------------------------------
                             ORCA STARTUP CALCULATIONS
                           -- RI-GTO INTEGRALS CHOSEN --
------------------------------------------------------------------------------
------------------------------------------------------------------------------
                   ___                                                        
                  /   \      - P O W E R E D   B Y -                         
                 /     \                                                     
                 |  |  |   _    _      __       _____    __    __             
                 |  |  |  | |  | |    /  \     |  _  \  |  |  /  |          
                  \  \/   | |  | |   /    \    | | | |  |  | /  /          
                 / \  \   | |__| |  /  /\  \   | |_| |  |  |/  /          
                |  |  |   |  __  | /  /__\  \  |    /   |      \           
                |  |  |   | |  | | |   __   |  |    \   |  |\   \          
                \     /   | |  | | |  |  |  |  | |\  \  |  | \   \       
                 \___/    |_|  |_| |__|  |__|  |_| \__\ |__|  \__/        
                                                                              
                      - O R C A' S   B I G   F R I E N D -                    
                                      &                                       
                       - I N T E G R A L  F E E D E R -                       
                                                                              
 v1 FN, 2020, v2 2021, v3 2022-2024                                           
------------------------------------------------------------------------------


----------------------
SHARK INTEGRAL PACKAGE
----------------------

Number of atoms                             ...     14
Number of basis functions                   ...    106
Number of shells                            ...     54
Maximum angular momentum                    ...      2
Integral batch strategy                     ... SHARK/LIBINT Hybrid
RI-J (if used) integral strategy            ... SPLIT-RIJ (Revised 2003 algorithm where possible)
Printlevel                                  ...      1
Contraction scheme used                     ... SEGMENTED contraction
Prescreening option                         ... SCHWARTZ
   Thresh                                   ... 2.500e-11
   Tcut                                     ... 2.500e-12
   Tpresel                                  ... 2.500e-12 
Coulomb Range Separation                    ... NOT USED
Exchange Range Separation                   ... NOT USED
Multipole approximations                    ... NOT USED
Finite Nucleus Model                        ... NOT USED
CABS basis                                  ... NOT available
Auxiliary Coulomb fitting basis             ... AVAILABLE
   # of basis functions in Aux-J            ...    306
   # of shells in Aux-J                     ...    110
   Maximum angular momentum in Aux-J        ...      4
Auxiliary J/K fitting basis                 ... NOT available
Auxiliary Correlation fitting basis         ... NOT available
Auxiliary 'external' fitting basis          ... NOT available

Checking pre-screening integrals            ... done (  0.0 sec) Dimension = 54
   => SHARK Basis and OBASIS are compatible. Storing Pre-screening
Shell pair information
Shell pair cut-off parameter TPreSel        ...   2.5e-12
Total number of shell pairs                 ...      1485
Shell pairs after pre-screening             ...      1429
Total number of primitive shell pairs       ...      4933
Primitive shell pairs kept                  ...      3712
          la=0 lb=0:    515 shell pairs
          la=1 lb=0:    552 shell pairs
          la=1 lb=1:    160 shell pairs
          la=2 lb=0:    124 shell pairs
          la=2 lb=1:     68 shell pairs
          la=2 lb=2:     10 shell pairs

Checking whether 4 symmetric matrices of dimension 106 fit in memory
:Max Core in MB      =   4096.00
 MB in use           =      5.07
 MB left             =   4090.93
 MB needed           =      0.17
 Data fit in memory  = YES
Calculating RI/J V-Matrix + Cholesky decomp.... done (  0.0 sec)
Calculating Nuclear repulsion               ... done (  0.0 sec) ENN=    113.878980776080 Eh

Diagonalization of the overlap matrix:
Smallest eigenvalue                        ... 5.794e-03
Time for diagonalization                   ...    0.002 sec
Threshold for overlap eigenvalues          ... 1.000e-07
Number of eigenvalues below threshold      ... 0
Time for construction of square roots      ...    0.001 sec
Total time needed                          ...    0.003 sec

-------------------
DFT GRID GENERATION
-------------------

General Integration Accuracy     IntAcc      ... 4.388
Radial Grid Type                 RadialGrid  ... OptM3 with GC (2021)
Angular Grid (max. ang.)         AngularGrid ... 4 (Lebedev-302)
Angular grid pruning method      GridPruning ... 4 (adaptive)
Weight generation scheme         WeightScheme... mBecke (2022)
Basis function cutoff            BFCut       ... 1.0000e-11
Integration weight cutoff        WCut        ... 1.0000e-14
Partially contracted basis set               ... off
Rotationally invariant grid construction     ... off
Angular grids for H and He will be reduced by one unit

Total number of grid points                  ...    56644
Total number of batches                      ...      891
Average number of points per batch           ...       63
Average number of grid points per atom       ...     4046

--------------------
COSX GRID GENERATION
--------------------

GRIDX 1
-------
General Integration Accuracy     IntAcc      ... 3.816
Radial Grid Type                 RadialGrid  ... OptM3 with GC (2021)
Angular Grid (max. ang.)         AngularGrid ... 1 (Lebedev-50)
Angular grid pruning method      GridPruning ... 4 (adaptive)
Weight generation scheme         WeightScheme... mBecke (2022)
Basis function cutoff            BFCut       ... 1.0000e-11
Integration weight cutoff        WCut        ... 1.0000e-14
Partially contracted basis set               ... on
Rotationally invariant grid construction     ... off
Angular grids for H and He will be reduced by one unit

Total number of grid points                  ...     7319
Total number of batches                      ...       65
Average number of points per batch           ...      112
Average number of grid points per atom       ...      523
UseSFitting                                  ... on

GRIDX 2
-------
General Integration Accuracy     IntAcc      ... 4.020
Radial Grid Type                 RadialGrid  ... OptM3 with GC (2021)
Angular Grid (max. ang.)         AngularGrid ... 2 (Lebedev-110)
Angular grid pruning method      GridPruning ... 4 (adaptive)
Weight generation scheme         WeightScheme... mBecke (2022)
Basis function cutoff            BFCut       ... 1.0000e-11
Integration weight cutoff        WCut        ... 1.0000e-14
Partially contracted basis set               ... on
Rotationally invariant grid construction     ... off
Angular grids for H and He will be reduced by one unit

Total number of grid points                  ...    15006
Total number of batches                      ...      125
Average number of points per batch           ...      120
Average number of grid points per atom       ...     1072
UseSFitting                                  ... on

GRIDX 3
-------
General Integration Accuracy     IntAcc      ... 4.338
Radial Grid Type                 RadialGrid  ... OptM3 with GC (2021)
Angular Grid (max. ang.)         AngularGrid ... 3 (Lebedev-194)
Angular grid pruning method      GridPruning ... 4 (adaptive)
Weight generation scheme         WeightScheme... mBecke (2022)
Basis function cutoff            BFCut       ... 1.0000e-11
Integration weight cutoff        WCut        ... 1.0000e-14
Partially contracted basis set               ... on
Rotationally invariant grid construction     ... off
Angular grids for H and He will be reduced by one unit

Total number of grid points                  ...    32815
Total number of batches                      ...      261
Average number of points per batch           ...      125
Average number of grid points per atom       ...     2344
UseSFitting                                  ... on
Grids setup in   0.6 sec
Initializing property integral containers    ... done (  0.0 sec)

SHARK setup successfully completed in   0.7 seconds

Maximum memory used throughout the entire STARTUP-calculation: 15.7 MB


           ************************************************************
           *        Program running with 6 parallel MPI-processes     *
           *              working on a common directory               *
           ************************************************************
-------------------------------------------------------------------------------
                                 ORCA GUESS
                   Start orbitals & Density for SCF / CASSCF
-------------------------------------------------------------------------------

------------
SCF SETTINGS
------------
Hamiltonian:
 Density Functional     Method          .... DFT(GTOs)
 Exchange Functional    Exchange        .... B88
   X-Alpha parameter    XAlpha          ....  0.666667
   Becke's b parameter  XBeta           ....  0.004200
 Correlation Functional Correlation     .... LYP
 LDA part of GGA corr.  LDAOpt          .... VWN-5
 Gradients option       PostSCFGGA      .... off
 Hybrid DFT is turned on
   Fraction HF Exchange ScalHFX         ....  0.200000
   Scaling of DF-GGA-X  ScalDFX         ....  0.720000
   Scaling of DF-GGA-C  ScalDFC         ....  0.810000
   Scaling of DF-LDA-C  ScalLDAC        ....  1.000000
   Perturbative correction              ....  0.000000
   NL short-range parameter             ....  4.800000
 RI-approximation to the Coulomb term is turned on
   Number of AuxJ basis functions       .... 306
   RIJ-COSX (HFX calculated with COS-X)).... on


General Settings:
 Integral files         IntName         .... orca
 Hartree-Fock type      HFTyp           .... RHF
 Total Charge           Charge          ....    0
 Multiplicity           Mult            ....    1
 Number of Electrons    NEL             ....   34
 Basis Dimension        Dim             ....  106
 Nuclear Repulsion      ENuc            ....    113.8789807761 Eh

Convergence Acceleration:
 AO-DIIS                CNVDIIS         .... on
   Start iteration      DIISMaxIt       ....    12
   Startup error        DIISStart       ....  0.200000
   # of expansion vecs  DIISMaxEq       ....     5
   Bias factor          DIISBfac        ....   1.050
   Max. coefficient     DIISMaxC        ....  10.000
 MO-DIIS                CNVKDIIS        .... off
 Trust-Rad. Augm. Hess. CNVTRAH         .... auto
   Auto Start mean grad. ratio tolernc. ....  1.125000
   Auto Start start iteration           ....    50
   Auto Start num. interpolation iter.  ....    10
   Max. Number of Micro iterations      ....    24
   Max. Number of Macro iterations      .... Maxiter - #DIIS iter
   Number of Davidson start vectors     ....     2
   Converg. threshold    (grad. norm)   ....   1.000e-05
   Grad. Scal. Fac. for Micro threshold ....   0.100
   Minimum threshold for Micro iter.    ....   1.000e-02
   NR start threshold (gradient norm)   ....   1.000e-04
   Initial trust radius                 ....   0.400
   Minimum AH scaling param. (alpha)    ....   1.000
   Maximum AH scaling param. (alpha)    .... 1000.000
   Quad. conv. algorithm                .... NR
   White noise on init. David. guess    .... on
   Maximum white noise                  ....   0.010
   Pseudo random numbers                .... off
   Inactive MOs                         .... canonical
   Orbital update algorithm             .... Taylor
   Preconditioner                       .... Diag
   Full preconditioner red. dimension   ....   250
 SOSCF                 CNVSOSCF           .... on
   Start iteration     SOSCFMaxIt         ....   150
   Startup grad/error  SOSCFStart         ....  0.003300
   Hessian update      SOSCFHessUp        .... L-BFGS
   Autom. constraints  SOSCFAutoConstrain .... off
 Level Shifting         CNVShift        .... on
   Level shift para.    LevelShift      ....    0.2500
   Turn off err/grad.   ShiftErr        ....    0.0010
 Zerner damping         CNVZerner       .... off
 Static damping         CNVDamp         .... on
   Fraction old density DampFac         ....    0.7000
   Max. Damping (<1)    DampMax         ....    0.9800
   Min. Damping (>=0)   DampMin         ....    0.0000
   Turn off err/grad.   DampErr         ....    0.1000

SCF Procedure:
 Maximum # iterations   MaxIter         ....   125
 SCF integral mode      SCFMode         .... Direct
   Integral package                     .... SHARK and LIBINT hybrid scheme
 Reset frequency        DirectResetFreq ....    20
 Integral Threshold     Thresh          ....  2.500e-11 Eh
 Primitive CutOff       TCut            ....  2.500e-12 Eh

Convergence Tolerance:
 Convergence Check Mode ConvCheckMode   .... Total+1el-Energy
 Convergence forced     ConvForced      .... 0
 Energy Change          TolE            ....  1.000e-08 Eh
 1-El. energy change                    ....  1.000e-05 Eh
 Orbital Gradient       TolG            ....  1.000e-05
 Orbital Rotation angle TolX            ....  1.000e-05
 DIIS Error             TolErr          ....  5.000e-07

------------------------------
INITIAL GUESS: MODEL POTENTIAL
------------------------------
Loading Hartree-Fock densities                     ... done
Calculating cut-offs                               ... done
Initializing the effective Hamiltonian             ... done
Setting up the integral package (SHARK)            ... done
Starting the Coulomb interaction                   ... done (   0.0 sec)
Making the grid                                    ... done (   0.1 sec)
Mapping shells                                     ... done
Starting the XC term evaluation                    ... done (   0.0 sec)
  promolecular density results
     # of electrons  =     33.996031750
     EX              =    -23.712629717
     EC              =     -1.039365500
     EX+EC           =    -24.751995217
Transforming the Hamiltonian                       ... done (   0.0 sec)
Diagonalizing the Hamiltonian                      ... done (   0.0 sec)
Back transforming the eigenvectors                 ... done (   0.0 sec)
Now organizing SCF variables                       ... done
                      ------------------
                      INITIAL GUESS DONE (   0.1 sec)
                      ------------------
             **** ENERGY FILE WAS UPDATED (orca.en.tmp) ****
Finished Guess after   0.2 sec
Maximum memory used throughout the entire GUESS-calculation: 7.4 MB


           ************************************************************
           *        Program running with 6 parallel MPI-processes     *
           *              working on a common directory               *
           ************************************************************

-------------------------------------------------------------------------------------------
                                      ORCA LEAN-SCF
                              memory conserving SCF solver
-------------------------------------------------------------------------------------------

----------------------------------------D-I-I-S--------------------------------------------
Iteration    Energy (Eh)           Delta-E    RMSDP     MaxDP     DIISErr   Damp  Time(sec)
-------------------------------------------------------------------------------------------
               ***  Starting incremental Fock matrix formation  ***
    1    -164.7216227635009318     0.00e+00  1.24e-02  9.64e-02  2.58e-01  0.700   0.5
    2    -164.8339989898336739    -1.12e-01  8.68e-03  6.29e-02  1.16e-01  0.700   0.3
                               ***Turning on AO-DIIS***
    3    -164.8764176427065422    -4.24e-02  3.41e-03  2.38e-02  3.19e-02  0.700   0.3
    4    -164.9022544699249693    -2.58e-02  5.47e-03  3.68e-02  1.75e-02  0.000   0.3
    5    -164.9592647301762440    -5.70e-02  1.19e-03  1.02e-02  7.00e-03  0.000   0.3
                              *** Initializing SOSCF ***
---------------------------------------S-O-S-C-F--------------------------------------
Iteration    Energy (Eh)           Delta-E    RMSDP     MaxDP     MaxGrad    Time(sec)
--------------------------------------------------------------------------------------
    6    -164.9596630070512333    -3.98e-04  3.39e-04  3.12e-03  1.46e-03     0.3
               *** Restarting incremental Fock matrix formation ***
    7    -164.9596648682409068    -1.86e-06  2.06e-04  1.53e-03  2.41e-04     0.4
    8    -164.9596667647413710    -1.90e-06  6.03e-05  5.98e-04  1.70e-04     0.4
    9    -164.9596676736829863    -9.09e-07  1.77e-05  1.47e-04  4.93e-05     0.3
   10    -164.9596676665314590     7.15e-09  8.29e-06  9.08e-05  5.11e-05     0.3
                 **** Energy Check signals convergence ****

               *****************************************************
               *                     SUCCESS                       *
               *           SCF CONVERGED AFTER  10 CYCLES          *
               *****************************************************

Recomputing exchange energy using gridx3       ... done (    0.645 sec)
Old exchange energy                            :     -4.887778739 Eh
New exchange energy                            :     -4.887757427 Eh
Exchange energy change after final integration :      0.000021313 Eh
Total energy after final integration           :   -164.959646389 Eh
             **** ENERGY FILE WAS UPDATED (orca.en.tmp) ****

----------------
TOTAL SCF ENERGY
----------------

Total Energy       :       -164.95964638874776 Eh           -4488.78018 eV

Components:
Nuclear Repulsion  :        113.87898077607986 Eh            3098.80461 eV
Electronic Energy  :       -278.83864847751943 Eh           -7587.58537 eV
One Electron Energy:       -446.10556924855115 Eh          -12139.14968 eV
Two Electron Energy:        167.26692077103175 Eh            4551.56431 eV

Virial components:
Potential Energy   :       -327.95497490136921 Eh           -8924.10856 eV
Kinetic Energy     :        162.99532851262146 Eh            4435.32838 eV
Virial Ratio       :          2.01205137530045

DFT components:
N(Alpha)           :       16.999999941954 electrons
N(Beta)            :       16.999999941954 electrons
N(Total)           :       33.999999883907 electrons
E(X)               :      -19.366854381134 Eh       
E(C)               :       -1.248503136740 Eh       
E(XC)              :      -20.615357517874 Eh       

---------------
SCF CONVERGENCE
---------------

  Last Energy change         ...   -7.1515e-09  Tolerance :   1.0000e-08
  Last MAX-Density change    ...    9.0830e-05  Tolerance :   1.0000e-07
  Last RMS-Density change    ...    8.2885e-06  Tolerance :   5.0000e-09
  Last DIIS Error            ...    1.4618e-03  Tolerance :   5.0000e-07
  Last Orbital Gradient      ...    5.1130e-05  Tolerance :   1.0000e-05
  Last Orbital Rotation      ...    6.0271e-05  Tolerance :   1.0000e-05


----------------
ORBITAL ENERGIES
----------------

  NO   OCC          E(Eh)            E(eV) 
   0   2.0000     -14.335146      -390.0792 
   1   2.0000     -14.320901      -389.6915 
   2   2.0000      -6.755502      -183.8266 
   3   2.0000      -6.747289      -183.6031 
   4   2.0000      -0.862144       -23.4601 
   5   2.0000      -0.852980       -23.2108 
   6   2.0000      -0.593322       -16.1451 
   7   2.0000      -0.523922       -14.2566 
   8   2.0000      -0.516325       -14.0499 
   9   2.0000      -0.494714       -13.4619 
  10   2.0000      -0.418405       -11.3854 
  11   2.0000      -0.390235       -10.6188 
  12   2.0000      -0.379911       -10.3379 
  13   2.0000      -0.322601        -8.7784 
  14   2.0000      -0.314991        -8.5713 
  15   2.0000      -0.307265        -8.3611 
  16   2.0000      -0.252614        -6.8740 
  17   0.0000       0.005925         0.1612 
  18   0.0000       0.026244         0.7141 
  19   0.0000       0.062453         1.6994 
  20   0.0000       0.082023         2.2320 
  21   0.0000       0.105795         2.8788 
  22   0.0000       0.120983         3.2921 
  23   0.0000       0.144451         3.9307 
  24   0.0000       0.157468         4.2849 
  25   0.0000       0.175274         4.7695 
  26   0.0000       0.184179         5.0118 
  27   0.0000       0.194911         5.3038 
*Only the first 10 virtual orbitals were printed.

                    ********************************
                    * MULLIKEN POPULATION ANALYSIS *
                    ********************************

-----------------------
MULLIKEN ATOMIC CHARGES
-----------------------
   0 N :   -0.197342
   1 B :   -0.117077
   2 B :   -0.055076
   3 N :   -0.077146
   4 H :    0.106766
   5 H :    0.125670
   6 H :    0.212744
   7 H :   -0.020950
   8 H :   -0.086967
   9 H :   -0.040303
  10 H :   -0.046808
  11 H :   -0.046431
  12 H :    0.120813
  13 H :    0.122106
Sum of atomic charges:    0.0000000

--------------------------------
MULLIKEN REDUCED ORBITAL CHARGES
--------------------------------
  0 N s       :     3.363208  s :     3.363208
      pz      :     1.270658  p :     3.823076
      px      :     1.086004
      py      :     1.466414
      dz2     :     0.002690  d :     0.011057
      dxz     :     0.002914
      dyz     :     0.001142
      dx2y2   :     0.003069
      dxy     :     0.001242

  1 B s       :     2.944528  s :     2.944528
      pz      :     0.532385  p :     2.095001
      px      :     0.922428
      py      :     0.640188
      dz2     :     0.014151  d :     0.077549
      dxz     :     0.007851
      dyz     :     0.023765
      dx2y2   :     0.016165
      dxy     :     0.015616

  2 B s       :     2.961795  s :     2.961795
      pz      :     0.797691  p :     2.024331
      px      :     0.662573
      py      :     0.564067
      dz2     :     0.013477  d :     0.068951
      dxz     :     0.014609
      dyz     :     0.014681
      dx2y2   :     0.013286
      dxy     :     0.012899

  3 N s       :     3.317360  s :     3.317360
      pz      :     1.135342  p :     3.748034
      px      :     1.275140
      py      :     1.337552
      dz2     :     0.003838  d :     0.011752
      dxz     :     0.001660
      dyz     :     0.002607
      dx2y2   :     0.000733
      dxy     :     0.002914

  4 H s       :     0.846359  s :     0.846359
      pz      :     0.010295  p :     0.046875
      px      :     0.024597
      py      :     0.011983

  5 H s       :     0.828641  s :     0.828641
      pz      :     0.017591  p :     0.045688
      px      :     0.013811
      py      :     0.014287

  6 H s       :     0.740111  s :     0.740111
      pz      :     0.026461  p :     0.047145
      px      :     0.007669
      py      :     0.013015

  7 H s       :     1.008747  s :     1.008747
      pz      :     0.001784  p :     0.012203
      px      :     0.008344
      py      :     0.002074

  8 H s       :     1.072866  s :     1.072866
      pz      :     0.007721  p :     0.014100
      px      :     0.003229
      py      :     0.003150

  9 H s       :     1.028567  s :     1.028567
      pz      :     0.001890  p :     0.011736
      px      :     0.004494
      py      :     0.005353

 10 H s       :     1.034769  s :     1.034769
      pz      :     0.008911  p :     0.012039
      px      :     0.001843
      py      :     0.001285

 11 H s       :     1.034455  s :     1.034455
      pz      :     0.002493  p :     0.011976
      px      :     0.006768
      py      :     0.002715

 12 H s       :     0.832770  s :     0.832770
      pz      :     0.021915  p :     0.046417
      px      :     0.012236
      py      :     0.012266

 13 H s       :     0.830613  s :     0.830613
      pz      :     0.012278  p :     0.047280
      px      :     0.021165
      py      :     0.013837



                     *******************************
                     * LOEWDIN POPULATION ANALYSIS *
                     *******************************

----------------------
LOEWDIN ATOMIC CHARGES
----------------------
   0 N :   -0.047090
   1 B :   -0.236205
   2 B :   -0.121269
   3 N :    0.059084
   4 H :    0.061932
   5 H :    0.075327
   6 H :    0.180961
   7 H :   -0.034859
   8 H :    0.032820
   9 H :   -0.045763
  10 H :   -0.044085
  11 H :   -0.045452
  12 H :    0.082403
  13 H :    0.082196

-------------------------------
LOEWDIN REDUCED ORBITAL CHARGES
-------------------------------
  0 N s       :     3.067027  s :     3.067027
      pz      :     1.299651  p :     3.949225
      px      :     1.164257
      py      :     1.485317
      dz2     :     0.007212  d :     0.030837
      dxz     :     0.008140
      dyz     :     0.003229
      dx2y2   :     0.008630
      dxy     :     0.003625

  1 B s       :     2.722970  s :     2.722970
      pz      :     0.629148  p :     2.305081
      px      :     0.939927
      py      :     0.736007
      dz2     :     0.045553  d :     0.208154
      dxz     :     0.022140
      dyz     :     0.058278
      dx2y2   :     0.039461
      dxy     :     0.042722

  2 B s       :     2.782128  s :     2.782128
      pz      :     0.837342  p :     2.163916
      px      :     0.716174
      py      :     0.610399
      dz2     :     0.035450  d :     0.175226
      dxz     :     0.037801
      dyz     :     0.036098
      dx2y2   :     0.032871
      dxy     :     0.033006

  3 N s       :     3.034517  s :     3.034517
      pz      :     1.219757  p :     3.873864
      px      :     1.297659
      py      :     1.356448
      dz2     :     0.010828  d :     0.032536
      dxz     :     0.005195
      dyz     :     0.007136
      dx2y2   :     0.002125
      dxy     :     0.007252

  4 H s       :     0.808136  s :     0.808136
      pz      :     0.028107  p :     0.129932
      px      :     0.069651
      py      :     0.032174

  5 H s       :     0.800754  s :     0.800754
      pz      :     0.053671  p :     0.123919
      px      :     0.031283
      py      :     0.038965

  6 H s       :     0.654936  s :     0.654936
      pz      :     0.091824  p :     0.164103
      px      :     0.024160
      py      :     0.048118

  7 H s       :     1.002966  s :     1.002966
      pz      :     0.005370  p :     0.031892
      px      :     0.019303
      py      :     0.007219

  8 H s       :     0.928886  s :     0.928886
      pz      :     0.019714  p :     0.038294
      px      :     0.007786
      py      :     0.010794

  9 H s       :     1.014591  s :     1.014591
      pz      :     0.004794  p :     0.031172
      px      :     0.012272
      py      :     0.014106

 10 H s       :     1.012955  s :     1.012955
      pz      :     0.019908  p :     0.031131
      px      :     0.006319
      py      :     0.004905

 11 H s       :     1.014426  s :     1.014426
      pz      :     0.008286  p :     0.031025
      px      :     0.015302
      py      :     0.007437

 12 H s       :     0.799696  s :     0.799696
      pz      :     0.059520  p :     0.117902
      px      :     0.028400
      py      :     0.029981

 13 H s       :     0.794956  s :     0.794956
      pz      :     0.027375  p :     0.122848
      px      :     0.056287
      py      :     0.039186



                      *****************************
                      * MAYER POPULATION ANALYSIS *
                      *****************************

  NA   - Mulliken gross atomic population
  ZA   - Total nuclear charge
  QA   - Mulliken gross atomic charge
  VA   - Mayer's total valence
  BVA  - Mayer's bonded valence
  FA   - Mayer's free valence

  ATOM       NA         ZA         QA         VA         BVA        FA
  0 N      7.1973     7.0000    -0.1973     3.2620     3.2620     0.0000
  1 B      5.1171     5.0000    -0.1171     3.6385     3.6385    -0.0000
  2 B      5.0551     5.0000    -0.0551     3.5498     3.5498     0.0000
  3 N      7.0771     7.0000    -0.0771     3.5238     3.5238    -0.0000
  4 H      0.8932     1.0000     0.1068     1.0502     1.0502     0.0000
  5 H      0.8743     1.0000     0.1257     0.9922     0.9922    -0.0000
  6 H      0.7873     1.0000     0.2127     0.9945     0.9945    -0.0000
  7 H      1.0209     1.0000    -0.0209     0.9728     0.9728    -0.0000
  8 H      1.0870     1.0000    -0.0870     0.9071     0.9071    -0.0000
  9 H      1.0403     1.0000    -0.0403     0.9665     0.9665     0.0000
 10 H      1.0468     1.0000    -0.0468     0.9682     0.9682     0.0000
 11 H      1.0464     1.0000    -0.0464     0.9648     0.9648     0.0000
 12 H      0.8792     1.0000     0.1208     0.9921     0.9921     0.0000
 13 H      0.8779     1.0000     0.1221     1.0267     1.0267    -0.0000

  Mayer bond orders larger than 0.100000
B(  0-N ,  1-B ) :   0.8948 B(  0-N ,  4-H ) :   0.9444 B(  0-N ,  5-H ) :   0.9634 
B(  0-N ,  6-H ) :   0.3653 B(  1-B ,  6-H ) :   0.2825 B(  1-B ,  7-H ) :   0.9789 
B(  1-B ,  8-H ) :   0.4776 B(  1-B ,  9-H ) :   0.9485 B(  2-B ,  3-N ) :   1.5612 
B(  2-B , 10-H ) :   0.9705 B(  2-B , 11-H ) :   0.9697 B(  3-N , 12-H ) :   0.9580 
B(  3-N , 13-H ) :   0.9419 B(  6-H ,  8-H ) :   0.3427 

-------
TIMINGS
-------

Total SCF time: 0 days 0 hours 0 min 4 sec 

Total time                  ....       4.638 sec
Sum of individual times     ....       4.290 sec  ( 92.5%)

SCF preparation             ....       0.168 sec  (  3.6%)
Fock matrix formation       ....       3.964 sec  ( 85.5%)
  Startup                   ....       0.004 sec  (  0.1% of F)
  Split-RI-J                ....       0.304 sec  (  7.7% of F)
  Chain of spheres X        ....       2.990 sec  ( 75.4% of F)
  XC integration            ....       0.886 sec  ( 22.3% of F)
    Basis function eval.    ....       0.261 sec  ( 29.5% of XC)
    Density eval.           ....       0.126 sec  ( 14.3% of XC)
    XC-Functional eval.     ....       0.060 sec  (  6.8% of XC)
    XC-Potential eval.      ....       0.142 sec  ( 16.0% of XC)
Diagonalization             ....       0.000 sec  (  0.0%)
Density matrix formation    ....       0.020 sec  (  0.4%)
Total Energy calculation    ....       0.011 sec  (  0.2%)
Population analysis         ....       0.011 sec  (  0.2%)
Orbital Transformation      ....       0.013 sec  (  0.3%)
Orbital Orthonormalization  ....       0.000 sec  (  0.0%)
DIIS solution               ....       0.071 sec  (  1.5%)
SOSCF solution              ....       0.031 sec  (  0.7%)
Finished LeanSCF after   4.6 sec

Maximum memory used throughout the entire LEANSCF-calculation: 9.4 MB


-------------------------------------------------------------------------------
                          DFT DISPERSION CORRECTION                            
                                                                               
                              DFTD3 V3.1  Rev 1                                
                          USING Becke-Johnson damping                          
-------------------------------------------------------------------------------
The B3LYP functional is recognized
Active option DFTDOPT                   ...         4   

molecular C6(AA) [au] = 1325.353015 


            DFT-D V3
 parameters
 s6 scaling factor         :     1.0000 
 a1 scaling factor         :     0.3981 
 s8 scaling factor         :     1.9889 
 a2 scaling factor         :     4.4211 
 ad hoc parameters k1-k3   :    16.0000     1.3333    -4.0000 

 Edisp/kcal,au: -7.916644503909  -0.012615974717 
 E6   /kcal   :  -4.037069632 
 E8   /kcal   :  -3.879574872 
 % E8         :  49.005293470 

-------------------------   ----------------
Dispersion correction           -0.012615975
-------------------------   ----------------


-------------------------   --------------------
FINAL SINGLE POINT ENERGY      -164.972262363465
-------------------------   --------------------



           ************************************************************
           *        Program running with 6 parallel MPI-processes     *
           *              working on a common directory               *
           ************************************************************
------------------------------------------------------------------------------
                         ORCA SCF GRADIENT CALCULATION
------------------------------------------------------------------------------

Nuc. rep. gradient        (SHARK) ... done (  0.0 sec)
HCore & Overlap gradient  (SHARK) ... done (  0.0 sec)
Split-RIJ-J gradient      (SHARK) ... done (  0.2 sec)
done (  2.1 sec)
XC gradient                       ... done (  0.5 sec)
Dispersion correction             ... done (  0.0 sec)

-------------------
DISPERSION GRADIENT
-------------------

   1   N   :    0.000393901   -0.000208462    0.000097936
   2   B   :    0.000542460   -0.000217001   -0.000616882
   3   B   :   -0.000494870   -0.000102273   -0.000140060
   4   N   :   -0.000476427    0.000128429    0.000052704
   5   H   :    0.000110562   -0.000139924    0.000155568
   6   H   :    0.000069620   -0.000126033    0.000140539
   7   H   :    0.000242685    0.000172667   -0.000179320
   8   H   :    0.000115294    0.000084437   -0.000012493
   9   H   :   -0.000101391    0.000087129    0.000595960
  10   H   :    0.000181083    0.000160813   -0.000069620
  11   H   :   -0.000159092   -0.000065017   -0.000101628
  12   H   :   -0.000083093   -0.000051800   -0.000034240
  13   H   :   -0.000149024    0.000102862    0.000110281
  14   H   :   -0.000191709    0.000174174    0.000001257

Difference to translation invariance:
           :    0.0000000000   -0.0000000000   -0.0000000000

Difference to rotation invariance:
           :   -0.0000000000    0.0000000000   -0.0000000000

Norm of the Dispersion gradient    ...    0.0015127673
RMS gradient                       ...    0.0002334251
MAX gradient                       ...    0.0006168819

------------------
CARTESIAN GRADIENT
------------------

   1   N   :    0.000135842   -0.000203730    0.000106727
   2   B   :   -0.000212023    0.000141233   -0.000017345
   3   B   :   -0.000030828   -0.000015023   -0.000026738
   4   N   :    0.000042773    0.000007375    0.000063665
   5   H   :   -0.000013996   -0.000003014    0.000092540
   6   H   :   -0.000050380    0.000054594   -0.000007184
   7   H   :    0.000042300   -0.000002586   -0.000062678
   8   H   :    0.000033079    0.000026178    0.000011729
   9   H   :   -0.000050183    0.000030452   -0.000003749
  10   H   :    0.000058428   -0.000039450   -0.000056400
  11   H   :   -0.000035383    0.000010059   -0.000014045
  12   H   :   -0.000003611    0.000035572   -0.000031777
  13   H   :    0.000066259   -0.000003890   -0.000059137
  14   H   :    0.000017722   -0.000037769    0.000004392

Difference to translation invariance:
           :    0.0000000000   -0.0000000000    0.0000000000

Difference to rotation invariance:
           :   -0.0000564112    0.0000507347    0.0000883781

Norm of the Cartesian gradient     ...    0.0004375749
RMS gradient                       ...    0.0000675193
MAX gradient                       ...    0.0002120232

-------
TIMINGS
-------

Total SCF gradient time     ....        2.857 sec

Densities                   ....       0.000 sec  (  0.0%)
One electron gradient       ....       0.027 sec  (  1.0%)
RI-J Coulomb gradient       ....       0.152 sec  (  5.3%)
COSX gradient               ....       2.095 sec  ( 73.3%)
XC gradient                 ....       0.546 sec  ( 19.1%)

Maximum memory used throughout the entire SCFGRAD-calculation: 27.3 MB


           ************************************************************
           *        Program running with 6 parallel MPI-processes     *
           *              working on a common directory               *
           ************************************************************

------------------------------------------------------------------------------
                              ORCA PROPERTY CALCULATIONS
------------------------------------------------------------------------------

GBWName                                 ... orca.gbw
Number of atoms                         ...     14
Number of basis functions               ...    106
Max core memory                         ...   4096 MB

Electric properties:
Dipole moment                           ... YES
Quadrupole moment                       ...  NO
Static polarizability (Dipole/Dipole)   ...  NO
Static polarizability (Dipole/Quad.)    ...  NO
Static polarizability (Quad./Quad.)     ...  NO
Static polarizability (Velocity)        ...  NO
Static hyperpolarizability              ...  NO

Atomic electric properties:
Dipole moment                           ...  NO
Quadrupole moment                       ...  NO
Static polarizability                   ...  NO

Choice of electric origin               ... Center of mass
Position of electric origin             ...    -0.420720    -0.022485     0.204961

General magnetic properties:
Magnetizability                         ...  NO

EPR properties:
g-Tensor (aka g-matrix)                 ...  NO
Zero-Field splitting spin-orbit         ...  NO
Zero-field splitting spin-spin          ...  NO
Hyperfine couplings                     ...  NO (   0 nuclei)
Quadrupole couplings                    ...  NO (   0 nuclei)
Contact density                         ...  NO (   0 nuclei)

NMR properties:
Chemical shifts                         ...  NO (   0 nuclei)
Spin-rotation constants                 ...  NO (   0 nuclei)
Spin-spin couplings                     ...  NO (   0 nuclei,    0 pairs)

Choice of magnetic origin               ... GIAO
Position of magnetic origin             ...     0.000000     0.000000     0.000000

Properties with geometric perturbations:
SCF Hessian                             ...  NO
IR spectrum                             ...  NO
VCD spectrum                            ...  NO
X-ray spectroscopy properties:
SCF XES/XAS/RIXS spectra                ...  NO

SCF SOC stabilization energy            ...  NO
Diagonal Born-Oppenheimer correction    ...  NO

-------------
DIPOLE MOMENT
-------------

Method             : SCF
Type of density    : Electron Density
Multiplicity       :   1
Irrep              :   0
Energy             :  -164.9596463887477569 Eh
Basis              : AO
                                X                 Y                 Z
Electronic contribution:     -3.283229372      -0.149065667       1.512231025
Nuclear contribution   :      3.348799223       0.018514720      -0.770138382
                        -----------------------------------------
Total Dipole Moment    :      0.065569852      -0.130550947       0.742092643
                        -----------------------------------------
Magnitude (a.u.)       :      0.756336199
Magnitude (Debye)      :      1.922453839



--------------------
Rotational spectrum 
--------------------
 
Rotational constants in cm-1:             0.414403             0.076372             0.073195 
Rotational constants in MHz :         12423.495235          2289.574261          2194.319227 

Dipole components along the rotational axes: 
x,y,z [a.u.] :     0.124346    -0.320458    -0.673713 
x,y,z [Debye]:     0.316062    -0.814539    -1.712443 

 

Dipole moment calculation done in   0.0 sec 

Maximum memory used throughout the entire PROP-calculation: 5.5 MB

--------------------------------
SUGGESTED CITATIONS FOR THIS RUN
--------------------------------

Below you find a list of papers that are relevant to this ORCA run
We neither can nor want to force you to cite these papers, but we appreciate if you do
You receive ORCA, which is the product of decades of hard work by many enthusiastic individuals, for free
The only thing we kindly ask in return is that you cite our papers,
We deeply appreciate it, if you show your appreciation for ORCA by not just citing the generic ORCA reference.

Please note that relegating all ORCA citations to the supporting information does *not* help us.
SI sections are not indexed - citations you put there will not count into any citation statistics
But we need these citations in order to attract the funding resources that allow us to do what we are doing

Therefore, if you are a happy ORCA user, please consider citing a few of the papers listed below in the main body of your paper

In addition to the list printed below, the program has created the file orca.bibtex that contains the list in bibtex format
You can import this file easily into all common literature databanks and citation aid programs


List of essential papers. We consider these as the minimum necessary citations

  1. Neese, F.
     Software update: the ORCA program system, version 6.0
     WIRES Comput. Molec. Sci. 2025 15(1), e70019
     doi.org/10.1002/wcms.7019

List of papers to cite with high priority. The work reported in these papers was absolutely
necessary for this run to complete.
Our perspective: the developers of density functionals and basis sets usually get cited in chemistry papers
Good! But without the algorithms to do something with them, the functionals or basis sets would not do anything.
Hence, in our opinion, the algorithm design and method developments papers are equally worthy of getting cited

  1. Neese, F.
     An improvement of the resolution of the identity approximation for the formation of the Coulomb matrix
     J. Comp. Chem. 2003 24(14), 1740-1747
     doi.org/10.1002/jcc.10318
  2. Neese, F.; Wennmohs, F.; Hansen, A.; Becker, U.
     Efficient, approximate and parallel Hartree-Fock and hybrid DFT calculations. A 'chain-of-spheres' algorithm for the Hartree-Fock exchange
     Chem. Phys. 2009 356(1-3), 98-109
     doi.org/10.1016/j.chemphys.2008.10.036
  3. Grimme, S.; Antony, J.; Ehrlich, S.; Krieg, H.
     A consistent and accurate ab initio parametrization of density functional dispersion correction (DFT-D) for the 94 elements H-Pu
     J. Chem. Phys. 2010 132 , 154104
     doi.org/10.1063/1.3382344
  4. Grimme, S.; Ehrlich, S.; Goerigk, L.
     Effect of the damping function in dispersion corrected density functional theory
     J. Comput. Chem. 2011 32(7), 1456-1465
     doi.org/10.1002/jcc.21759
  5. Helmich-Paris, B.; de Souza, B.; Neese, F.; Izsák, R.
     An improved chain of spheres for exchange algorithm
     J. Chem. Phys. 2021 155(10), 104109
     doi.org/10.1063/5.0058766
  6. Neese, F.
     The SHARK Integral Generation and Digestion System
     J. Comp. Chem. 2022 44(3), 381
     doi.org/10.1002/jcc.26942

List of suggested additional citations. These are papers that are important in the 'surrounding' of 
of this run, or papers that preceded the highly important papers. If you like your results we are grateful for a citation.

  1. Izsak, R.; Neese, F.
     An overlap fitted chain of spheres exchange method
     J. Chem. Phys. 2011 135 , 144105
     doi.org/10.1063/1.3646921
  2. Izsak, R.; Hansen, A.; Neese, F.
     The resolution of identity and chain of spheres approximations for the LPNO-CCSD singles Fock term
     Molec. Phys. 2012 110 , 2413-2417
     doi.org/10.1080/00268976.2012.687466
  3. Neese, F.
     The ORCA program system
     WIRES Comput. Molec. Sci. 2012 2(1), 73-78
     doi.org/10.1002/wcms.81
  4. Izsak, R.; Neese, F.; Klopper, W.
     Robust fitting techniques in the chain of spheres approximation to the Fock exchange: The role of the complementary space
     J. Chem. Phys. 2013 139 , 
     doi.org/10.1063/1.4819264
  5. Neese, F.
     Software update: the ORCA program system, version 4.0
     WIRES Comput. Molec. Sci. 2018 8(1), 1-6
     doi.org/10.1002/wcms.1327
  6. Neese, F.; Wennmohs, F.; Becker, U.; Riplinger, C.
     The ORCA quantum chemistry program package
     J. Chem. Phys. 2020 152(22), 224108
     doi.org/10.1063/5.0004608
  7. Neese, F.
     Software update: The ORCA program system—Version 5.0
     WIRES Comput. Molec. Sci. 2022 12(1), e1606
     doi.org/10.1002/wcms.1606

List of optional additional citations

  1. Neese, F.
     Approximate second-order SCF convergence for spin unrestricted wavefunctions
     Chem. Phys. Lett. 2000 325(1-3), 93-98
     doi.org/10.1016/s0009-2614(00)00662-x

Timings for individual modules:

Sum of individual times          ...       10.469 sec (=   0.174 min)
Startup calculation              ...        1.119 sec (=   0.019 min)  10.7 %
SCF iterations                   ...        5.529 sec (=   0.092 min)  52.8 %
Property calculations            ...        0.424 sec (=   0.007 min)   4.0 %
SCF Gradient evaluation          ...        3.396 sec (=   0.057 min)  32.4 %
                             ****ORCA TERMINATED NORMALLY****
TOTAL RUN TIME: 0 days 0 hours 0 minutes 10 seconds 983 msec
