
                                 *****************
                                 * O   R   C   A *
                                 *****************

                                            #,                                       
                                            ###                                      
                                            ####                                     
                                            #####                                    
                                            ######                                   
                                           ########,                                 
                                     ,,################,,,,,                         
                               ,,#################################,,                 
                          ,,##########################################,,             
                       ,#########################################, ''#####,          
                    ,#############################################,,   '####,        
                  ,##################################################,,,,####,       
                ,###########''''           ''''###############################       
              ,#####''   ,,,,##########,,,,          '''####'''          '####       
            ,##' ,,,,###########################,,,                        '##       
           ' ,,###''''                  '''############,,,                           
         ,,##''                                '''############,,,,        ,,,,,,###''
      ,#''                                            '''#######################'''  
     '                                                          ''''####''''         
             ,#######,   #######,   ,#######,      ##                                
            ,#'     '#,  ##    ##  ,#'     '#,    #''#        ,####,    ,#,          
            ##       ##  ##   ,#'  ##            #'  '#       #'       ,# #          
            ##       ##  #######   ##           ,######,      #####,      #          
            '#,     ,#'  ##    ##  '#,     ,#' ,#      #,     #,   #      #          
             '#######'   ##     ##  '#######'  #'      '#     '####' #    #          



                #########################################################
                #                        -***-                          #
                #          Department of theory and spectroscopy        #
                #                                                       #
                #                      Frank Neese                      #
                #                                                       #
                #     Directorship, Architecture, Infrastructure        #
                #                    SHARK, DRIVERS                     #
                #        Core code/Algorithms in most modules           #
                #                                                       #
                #        Max Planck Institute fuer Kohlenforschung      #
                #                Kaiser Wilhelm Platz 1                 #
                #                 D-45470 Muelheim/Ruhr                 #
                #                      Germany                          #
                #                                                       #
                #                  All rights reserved                  #
                #                        -***-                          #
                #########################################################


                         Program Version 6.1.0  -  RELEASE   -
                                (GIT: $679e74b$)
                          ($2025-06-10 18:02:51 +0200$)


 With contributions from (in alphabetic order):
[Max-Planck-Institut fuer Kohlenforschung]                               
  Daniel Aravena         : Magnetic Suceptibility                        
  Michael Atanasov       : Ab Initio Ligand Field Theory (pilot matlab implementation)
  Alexander A. Auer      : GIAO ZORA, VPT2 properties, NMR spectrum      
  Ute Becker             : All parallelization in ORCA, NUMFREQ, NUMCALC 
  Giovanni Bistoni       : ED, misc. LED, open-shell LED, HFLD           
  Dmytro Bykov           : pre 5.0 version of the SCF Hessian            
  Marcos Casanova-Páez   : Triplet and SCS-CIS(D). UHF-(DLPNO)-IP/EA/STEOM-CCSD. UHF-CVS-IP/STEOM-CCSD   
  Vijay G. Chilkuri      : MRCI spin determinant printing, contributions to CSF-ICE 
  Pauline Colinet        : FMM embedding                                 
  Dipayan Datta          : RHF DLPNO-CCSD density                        
  Achintya Kumar Dutta   : EOM-CC, STEOM-CC                              
  Nicolas Foglia         : Exact transition moments, OPA infrastructure, MCD improvements    
  Dmitry Ganyushin       : Spin-Orbit,Spin-Spin,Magnetic field MRCI      
  Miquel Garcia-Rates    : C-PCM and meta-GGA Hessian, CCSD/C-PCM, Gaussian charge scheme 
  Tiago L. C. Gouveia    : GS-ROHF, GS-ROCIS                             
  Yang Guo               : DLPNO-NEVPT2, F12-NEVPT2, CIM, IAO-localization        
  Andreas Hansen         : Spin unrestricted coupled pair/coupled cluster methods 
  Ingolf Harden          : AUTO-CI MPn and infrastructure                
  Benjamin Helmich-Paris : MC-RPA, TRAH-(SCF,CASSCF), AVAS, COSX integrals, SCF dyn. polar., MC-PDFT, srDFT 
  Lee Huntington         : MR-EOM, pCC                                   
  Robert Izsak           : Overlap fitted RIJCOSX, COSX-SCS-MP3, EOM     
  Riya Kayal             : Wick's Theorem for AUTO-CI, AUTO-CI UHF-CCSDT 
  Emily Kempfer          : AUTO-CI RHF CISDT and CCSDT, approximate NEVPT4
  Christian Kollmar      : KDIIS, OOCD, Brueckner-CCSD(T), CCSD density, CASPT2, CASPT2-K, improved NEVPT2 
  Axel Koslowski         : Symmetry handling                             
  Simone Kossmann        : meta-GGA functionals, TD-DFT gradient, OOMP2, (MP2 Hessian; deprecated post 5.0) 
  Lucas Lang             : DCDCAS, Hyperfine gauge corrections, ICE-SOC+SSC
  Marvin Lechner         : AUTO-CI (C++ implementation), FIC-MRCC        
  Spencer Leger          : CASSCF response                               
  Dagmar Lenk            : GEPOL surface, SMD, ORCA-2-JSON               
  Dimitrios Liakos       : Extrapolation schemes; Compound Job, Property file
  Dimitrios Manganas     : Further ROCIS development; embedding schemes. LFT, Crystal Embedding 
  Dimitrios Pantazis     : SARC Basis sets                               
  Anastasios Papadopoulos: AUTO-CI, single reference methods and gradients 
  Taras Petrenko         : pre 6.0 DFT Hessian and TD-DFT gradient,  ECA, NRVS 
  Petra Pikulova         : Analytic Raman intensities                    
  Peter Pinski           : DLPNO-MP2, DLPNO-MP2 Gradient                 
  Shashank Vittal Rao    : ES-AILFT, MagRelax                            
  Christoph Reimann      : Effective Core Potentials                     
  Marius Retegan         : Local ZFS, SOC                                
  Christoph Riplinger    : Optimizer, TS searches, QM/MM, DLPNO-CCSD(T), (RO)-DLPNO pert. Triples 
  Michael Roemelt        : Original ROCIS implementation, recursive CI coupling coefficients
  Masaaki Saitow         : Open-shell DLPNO-CCSD energy and density      
  Barbara Sandhoefer     : DKH picture change effects                    
  Yorick L. A. Schmerwitz: GMF and freeze-and-release deltaSCF, NEB S-IDPP initial path                    
  Kantharuban Sivalingam : CASSCF convergence/infrastructure, NEVPT2, NEVPT3, NEVPT4(SD), FIC-MRCI and CEPA variants
  Bernardo de Souza      : ESD, SOC TD-DFT                               
  Georgi L. Stoychev     : AutoAux, RI-MP2 NMR, DLPNO-MP2 response, X2C  
  Van Anh Tran           : RI-MP2 g-tensors                              
  Willem Van den Heuvel  : Paramagnetic NMR                              
  Zikuan Wang            : NOTCH, Electric field optimization            
  Frank Wennmohs         : Technical directorship and infrastructure     
  Hang Xu                : AUTO-CI-Response properties                   
                                                                         
[FACCTs GmbH]                                                            
  Markus Bursch, Nicolas Foglia, Miquel Garcia-Rates, Ingolf Harden, Hagen Neugebauer, Anastasios Papadopoulos, 
  Christoph Riplinger, Bernardo de Souza, Georgi L. Stoychev                                                    
                                                                 
  APM, various basis sets, CI-OPT, improved COSX, DLPNO-Multilevel,           
  DOCKER, DRACO, updates on ESD, Fragmentator, GOAT, IRC, LR-CPCM, L-BFGS, MBIS, meta-GGA TD-DFT gradient, ML-optimized integration grids, 
  MM, NACMEs, nearIR, NEB, NEB-TS, NL-DFT gradient (VV10), 2- and 3-layer-ONIOM, interface openCOSMO-RS, QMMM,   
  Crystal-QMMM, RESP, rigid body optimization, SF, symmetry and pop. for TD-DFT, various functionals, SOLVATOR                                   
                                                                         
[Other institutions]                                                     
  V. Asgeirsson          : NEB                                           
  Christoph Bannwarth    : sTDA-DFT, sTD-DFT, PBEh-3c, B97-3c, D3        
  Giovanni Bistoni       : ETS/NOCV, ADLD/ADEX, COVALED                  
  Martin Brehm           : Molecular dynamics                            
  Ronald Cardenas        : ETS/NOCV                                      
  Martina Colucci        : COVALED                                       
  Sebastian Ehlert       : rSCAN, r2SCAN, r2SCAN-3c, D4, dhf basis sets  
  Marvin Friede          : D4 for Fr, Ra, Ac-Lr                          
  Lars Goerigk           : TD-DFT with DH, B97 family of functionals     
  Stefan Grimme          : VdW corrections, initial TS optimization, DFT functionals, gCP, sTDA/sTD-DF 
  Waldemar Hujo          : DFT-NL                                        
  H. Jonsson             : NEB                                           
  Holger Kruse           : gCP                                           
  Marcel Mueller         : wB97X-3c, vDZP basis set                      
  Hagen Neugebauer       : wr2SCAN, Native XTB                           
  Gianluca Regni         : ADLD/ADEX                                     
  Tobias Risthaus        : pre 6.0 range-separated hybrid DFT and stability analysis
  Lukas Wittmann         : regularized MP2, r2SCAN double-hybrids, wr2SCAN        
                                                                         
We gratefully acknowledge several colleagues who have allowed us to      
interface, adapt or use parts of their codes:                            
  Ed Valeev, F. Pavosevic, A. Kumar             : LibInt (2-el integral package), F12 methods 
  Garnet Chan, S. Sharma, J. Yang, R. Olivares  : DMRG                   
  Ulf Ekstrom                                   : XCFun DFT Library      
  Mihaly Kallay                                 : mrcc  (arbitrary order and MRCC methods)
  Frank Weinhold                                : gennbo (NPA and NBO analysis)           
  Simon Mueller                                 : openCOSMO-RS                            
  Christopher J. Cramer and Donald G. Truhlar   : smd solvation model                     
  S Lehtola, MJT Oliveira, MAL Marques          : LibXC Library                           
  Liviu Ungur et al                             : ANISO software                          


 Your calculation uses the libint2 library for the computation of 2-el integrals
 For citations please refer to: http://libint.valeyev.net

 Your ORCA version has been built with support for libXC version: 7.0.0
 For citations please refer to: https://libxc.gitlab.io

 This ORCA versions uses:
   CBLAS   interface :  Fast vector & matrix operations
   LAPACKE interface :  Fast linear algebra routines
   SCALAPACK package :  Parallel linear algebra routines
   Shared memory     :  Shared parallel matrices
   BLAS/LAPACK       :  OpenBLAS 0.3.29  USE64BITINT DYNAMIC_ARCH NO_AFFINITY Zen SINGLE_THREADED
        Core in use  :  Zen
   Copyright (c) 2011-2014, The OpenBLAS Project


  ***********************************
  * Starting time: Wed Sep 10 13:36:27 2025
  * Host name:     wyk-Server
  * Process ID:    2299831
  * Working dir.:  /home/wyk/Documents/code/openQDC/MGMR/singlepointcalc/71/prod
  ***********************************

Your calculation utilizes the atom-pairwise dispersion correction
with the Becke-Johnson damping scheme (D3BJ)


Warning: RI is on but no J-basis has been assigned. Assigning Def2/J (nothing to worry about!)
================================================================================

----- Orbital basis set information -----
Your calculation utilizes the basis: def2-SVP
   F. Weigend and R. Ahlrichs, Phys. Chem. Chem. Phys. 7, 3297 (2005).

----- AuxJ basis set information -----
Your calculation utilizes the auxiliary basis: def2/J
   H-Rn: F. Weigend, Phys. Chem. Chem. Phys. 8, 1057 (2006).
   Fr-Lr: K. Eichkorn, F. Weigend, O. Treutler, R. Ahlrichs; Theor. Chem. Acc. 97, 119 (1997).

================================================================================
                                        WARNINGS
                       Please study these warnings very carefully!
================================================================================


================================================================================
                                       INPUT FILE
================================================================================
NAME = orca.inp
|  1> ! B3LYP def2-SVP d3 EnGrad 
|  2> %pal nprocs 6 end 
|  3> *xyz 0 1 
|  4> C   2.01941430090698 -1.13335696310904 0.11756543054908
|  5> C   1.89774481382909 0.18402380143563 0.35370959141274
|  6> C   0.86602013819262 1.0934620363664 -0.15547380083022
|  7> C   -0.42631797622971 0.82394331512803 -0.42903099747883
|  8> C   -1.15917546025768 -0.4742660499573 -0.24625290714199
|  9> C   -2.6083588658927 -0.27541284673637 0.20904478319297
| 10> H   2.66751180124613 0.66262548961817 0.9735271517331
| 11> H   1.33623768386619 -1.67374282904796 -0.54185386578364
| 12> H   2.83813298668443 -1.70858081746072 0.55890685227311
| 13> H   -1.15533655471371 -1.03445532105083 -1.20189531726989
| 14> H   -0.61655552543004 -1.11154430078302 0.47158837837891
| 15> H   -2.65005566861753 0.24319565520861 1.18082059405978
| 16> H   -3.12915625885158 -1.23972796072567 0.31812798178218
| 17> H   -1.0364546045698 1.65603124366038 -0.80398590929424
| 18> H   -3.17621610740282 0.33208903440178 -0.5156230970202
| 19> H   1.19587829724011 2.13047551305189 -0.29260886856284
| 20> *
| 21> 
| 22>                          ****END OF INPUT****
================================================================================

                     *******************************
                     * Energy+Gradient Calculation *
                     *******************************

---------------------------------
CARTESIAN COORDINATES (ANGSTROEM)
---------------------------------
  C      2.019414   -1.133357    0.117565
  C      1.897745    0.184024    0.353710
  C      0.866020    1.093462   -0.155474
  C     -0.426318    0.823943   -0.429031
  C     -1.159175   -0.474266   -0.246253
  C     -2.608359   -0.275413    0.209045
  H      2.667512    0.662625    0.973527
  H      1.336238   -1.673743   -0.541854
  H      2.838133   -1.708581    0.558907
  H     -1.155337   -1.034455   -1.201895
  H     -0.616556   -1.111544    0.471588
  H     -2.650056    0.243196    1.180821
  H     -3.129156   -1.239728    0.318128
  H     -1.036455    1.656031   -0.803986
  H     -3.176216    0.332089   -0.515623
  H      1.195878    2.130476   -0.292609

----------------------------
CARTESIAN COORDINATES (A.U.)
----------------------------
  NO LB      ZA    FRAG     MASS         X           Y           Z
   0 C     6.0000    0    12.011    3.816140   -2.141734    0.222166
   1 C     6.0000    0    12.011    3.586218    0.347755    0.668414
   2 C     6.0000    0    12.011    1.636541    2.066344   -0.293803
   3 C     6.0000    0    12.011   -0.805624    1.557027   -0.810751
   4 C     6.0000    0    12.011   -2.190524   -0.896233   -0.465351
   5 C     6.0000    0    12.011   -4.929084   -0.520455    0.395037
   6 H     1.0000    0     1.008    5.040867    1.252181    1.839700
   7 H     1.0000    0     1.008    2.525123   -3.162916   -1.023955
   8 H     1.0000    0     1.008    5.363294   -3.228750    1.056181
   9 H     1.0000    0     1.008   -2.183270   -1.954837   -2.271253
  10 H     1.0000    0     1.008   -1.165121   -2.100514    0.891173
  11 H     1.0000    0     1.008   -5.007879    0.459573    2.231428
  12 H     1.0000    0     1.008   -5.913248   -2.342746    0.601175
  13 H     1.0000    0     1.008   -1.958615    3.129446   -1.519313
  14 H     1.0000    0     1.008   -6.002179    0.627557   -0.974386
  15 H     1.0000    0     1.008    2.259882    4.026015   -0.552951

--------------------------------
INTERNAL COORDINATES (ANGSTROEM)
--------------------------------
 C      0   0   0     0.000000000000     0.00000000     0.00000000
 C      1   0   0     1.343897171508     0.00000000     0.00000000
 C      2   1   0     1.466561091945   127.63029934     0.00000000
 C      3   2   1     1.348188296539   128.37721022    32.45299141
 C      4   3   2     1.501943899684   128.01207460     1.89556428
 C      5   4   3     1.531982743514   112.67729978   143.32903179
 H      2   1   3     1.098077683468   117.57906981   182.03934827
 H      1   2   3     1.092511319188   122.29731640     2.11430167
 H      1   2   3     1.093601856064   120.82897188   180.07007253
 H      5   4   3     1.107736057317   109.29501292   264.65015536
 H      5   4   3     1.102658638857   109.79517074    19.95252524
 H      6   5   4     1.102289267041   111.03012613   299.13254080
 H      6   5   4     1.101377640864   111.29010101   178.96635328
 H      4   3   2     1.097828862777   116.77729031   179.87648620
 H      6   5   4     1.103024894975   111.29876113    58.83819251
 H      3   2   1     1.096817843910   114.71739187   210.11230783

---------------------------
INTERNAL COORDINATES (A.U.)
---------------------------
 C      0   0   0     0.000000000000     0.00000000     0.00000000
 C      1   0   0     2.539597606302     0.00000000     0.00000000
 C      2   1   0     2.771398822441   127.63029934     0.00000000
 C      3   2   1     2.547706657417   128.37721022    32.45299141
 C      4   3   2     2.838262638917   128.01207460     1.89556428
 C      5   4   3     2.895027827134   112.67729978   143.32903179
 H      2   1   3     2.075066095525   117.57906981   182.03934827
 H      1   2   3     2.064547191474   122.29731640     2.11430167
 H      1   2   3     2.066608007508   120.82897188   180.07007253
 H      5   4   3     2.093317776998   109.29501292   264.65015536
 H      5   4   3     2.083722846642   109.79517074    19.95252524
 H      6   5   4     2.083024835068   111.03012613   299.13254080
 H      6   5   4     2.081302111257   111.29010101   178.96635328
 H      4   3   2     2.074595892563   116.77729031   179.87648620
 H      6   5   4     2.084414970400   111.29876113    58.83819251
 H      3   2   1     2.072685343788   114.71739187   210.11230783

---------------------
BASIS SET INFORMATION
---------------------
There are 2 groups of distinct atoms

 Group   1 Type C   : 7s4p1d contracted to 3s2p1d pattern {511/31/1}
 Group   2 Type H   : 4s1p contracted to 2s1p pattern {31/1}

Atom   0C    basis set group =>   1
Atom   1C    basis set group =>   1
Atom   2C    basis set group =>   1
Atom   3C    basis set group =>   1
Atom   4C    basis set group =>   1
Atom   5C    basis set group =>   1
Atom   6H    basis set group =>   2
Atom   7H    basis set group =>   2
Atom   8H    basis set group =>   2
Atom   9H    basis set group =>   2
Atom  10H    basis set group =>   2
Atom  11H    basis set group =>   2
Atom  12H    basis set group =>   2
Atom  13H    basis set group =>   2
Atom  14H    basis set group =>   2
Atom  15H    basis set group =>   2
---------------------------------
AUXILIARY/J BASIS SET INFORMATION
---------------------------------
There are 2 groups of distinct atoms

 Group   1 Type C   : 12s5p4d2f1g contracted to 6s4p3d1f1g pattern {711111/2111/211/2/1}
 Group   2 Type H   : 5s2p1d contracted to 3s1p1d pattern {311/2/1}

Atom   0C    basis set group =>   1
Atom   1C    basis set group =>   1
Atom   2C    basis set group =>   1
Atom   3C    basis set group =>   1
Atom   4C    basis set group =>   1
Atom   5C    basis set group =>   1
Atom   6H    basis set group =>   2
Atom   7H    basis set group =>   2
Atom   8H    basis set group =>   2
Atom   9H    basis set group =>   2
Atom  10H    basis set group =>   2
Atom  11H    basis set group =>   2
Atom  12H    basis set group =>   2
Atom  13H    basis set group =>   2
Atom  14H    basis set group =>   2
Atom  15H    basis set group =>   2


           ************************************************************
           *        Program running with 6 parallel MPI-processes     *
           *              working on a common directory               *
           ************************************************************
------------------------------------------------------------------------------
                             ORCA STARTUP CALCULATIONS
                           -- RI-GTO INTEGRALS CHOSEN --
------------------------------------------------------------------------------
------------------------------------------------------------------------------
                   ___                                                        
                  /   \      - P O W E R E D   B Y -                         
                 /     \                                                     
                 |  |  |   _    _      __       _____    __    __             
                 |  |  |  | |  | |    /  \     |  _  \  |  |  /  |          
                  \  \/   | |  | |   /    \    | | | |  |  | /  /          
                 / \  \   | |__| |  /  /\  \   | |_| |  |  |/  /          
                |  |  |   |  __  | /  /__\  \  |    /   |      \           
                |  |  |   | |  | | |   __   |  |    \   |  |\   \          
                \     /   | |  | | |  |  |  |  | |\  \  |  | \   \       
                 \___/    |_|  |_| |__|  |__|  |_| \__\ |__|  \__/        
                                                                              
                      - O R C A' S   B I G   F R I E N D -                    
                                      &                                       
                       - I N T E G R A L  F E E D E R -                       
                                                                              
 v1 FN, 2020, v2 2021, v3 2022-2024                                           
------------------------------------------------------------------------------


----------------------
SHARK INTEGRAL PACKAGE
----------------------

Number of atoms                             ...     16
Number of basis functions                   ...    134
Number of shells                            ...     66
Maximum angular momentum                    ...      2
Integral batch strategy                     ... SHARK/LIBINT Hybrid
RI-J (if used) integral strategy            ... SPLIT-RIJ (Revised 2003 algorithm where possible)
Printlevel                                  ...      1
Contraction scheme used                     ... SEGMENTED contraction
Prescreening option                         ... SCHWARTZ
   Thresh                                   ... 2.500e-11
   Tcut                                     ... 2.500e-12
   Tpresel                                  ... 2.500e-12 
Coulomb Range Separation                    ... NOT USED
Exchange Range Separation                   ... NOT USED
Multipole approximations                    ... NOT USED
Finite Nucleus Model                        ... NOT USED
CABS basis                                  ... NOT available
Auxiliary Coulomb fitting basis             ... AVAILABLE
   # of basis functions in Aux-J            ...    404
   # of shells in Aux-J                     ...    140
   Maximum angular momentum in Aux-J        ...      4
Auxiliary J/K fitting basis                 ... NOT available
Auxiliary Correlation fitting basis         ... NOT available
Auxiliary 'external' fitting basis          ... NOT available

Checking pre-screening integrals            ... done (  0.0 sec) Dimension = 66
   => SHARK Basis and OBASIS are compatible. Storing Pre-screening
Shell pair information
Shell pair cut-off parameter TPreSel        ...   2.5e-12
Total number of shell pairs                 ...      2211
Shell pairs after pre-screening             ...      2101
Total number of primitive shell pairs       ...      7611
Primitive shell pairs kept                  ...      5528
          la=0 lb=0:    708 shell pairs
          la=1 lb=0:    793 shell pairs
          la=1 lb=1:    235 shell pairs
          la=2 lb=0:    219 shell pairs
          la=2 lb=1:    125 shell pairs
          la=2 lb=2:     21 shell pairs

Checking whether 4 symmetric matrices of dimension 134 fit in memory
:Max Core in MB      =   4096.00
 MB in use           =      5.98
 MB left             =   4090.02
 MB needed           =      0.28
 Data fit in memory  = YES
Calculating RI/J V-Matrix + Cholesky decomp.... done (  0.0 sec)
Calculating Nuclear repulsion               ... done (  0.0 sec) ENN=    216.219311103616 Eh

Diagonalization of the overlap matrix:
Smallest eigenvalue                        ... 1.327e-03
Time for diagonalization                   ...    0.003 sec
Threshold for overlap eigenvalues          ... 1.000e-07
Number of eigenvalues below threshold      ... 0
Time for construction of square roots      ...    0.001 sec
Total time needed                          ...    0.005 sec

-------------------
DFT GRID GENERATION
-------------------

General Integration Accuracy     IntAcc      ... 4.388
Radial Grid Type                 RadialGrid  ... OptM3 with GC (2021)
Angular Grid (max. ang.)         AngularGrid ... 4 (Lebedev-302)
Angular grid pruning method      GridPruning ... 4 (adaptive)
Weight generation scheme         WeightScheme... mBecke (2022)
Basis function cutoff            BFCut       ... 1.0000e-11
Integration weight cutoff        WCut        ... 1.0000e-14
Partially contracted basis set               ... off
Rotationally invariant grid construction     ... off
Angular grids for H and He will be reduced by one unit

Total number of grid points                  ...    68466
Total number of batches                      ...     1078
Average number of points per batch           ...       63
Average number of grid points per atom       ...     4279

--------------------
COSX GRID GENERATION
--------------------

GRIDX 1
-------
General Integration Accuracy     IntAcc      ... 3.816
Radial Grid Type                 RadialGrid  ... OptM3 with GC (2021)
Angular Grid (max. ang.)         AngularGrid ... 1 (Lebedev-50)
Angular grid pruning method      GridPruning ... 4 (adaptive)
Weight generation scheme         WeightScheme... mBecke (2022)
Basis function cutoff            BFCut       ... 1.0000e-11
Integration weight cutoff        WCut        ... 1.0000e-14
Partially contracted basis set               ... on
Rotationally invariant grid construction     ... off
Angular grids for H and He will be reduced by one unit

Total number of grid points                  ...     8801
Total number of batches                      ...       79
Average number of points per batch           ...      111
Average number of grid points per atom       ...      550
UseSFitting                                  ... on

GRIDX 2
-------
General Integration Accuracy     IntAcc      ... 4.020
Radial Grid Type                 RadialGrid  ... OptM3 with GC (2021)
Angular Grid (max. ang.)         AngularGrid ... 2 (Lebedev-110)
Angular grid pruning method      GridPruning ... 4 (adaptive)
Weight generation scheme         WeightScheme... mBecke (2022)
Basis function cutoff            BFCut       ... 1.0000e-11
Integration weight cutoff        WCut        ... 1.0000e-14
Partially contracted basis set               ... on
Rotationally invariant grid construction     ... off
Angular grids for H and He will be reduced by one unit

Total number of grid points                  ...    18482
Total number of batches                      ...      153
Average number of points per batch           ...      120
Average number of grid points per atom       ...     1155
UseSFitting                                  ... on

GRIDX 3
-------
General Integration Accuracy     IntAcc      ... 4.338
Radial Grid Type                 RadialGrid  ... OptM3 with GC (2021)
Angular Grid (max. ang.)         AngularGrid ... 3 (Lebedev-194)
Angular grid pruning method      GridPruning ... 4 (adaptive)
Weight generation scheme         WeightScheme... mBecke (2022)
Basis function cutoff            BFCut       ... 1.0000e-11
Integration weight cutoff        WCut        ... 1.0000e-14
Partially contracted basis set               ... on
Rotationally invariant grid construction     ... off
Angular grids for H and He will be reduced by one unit

Total number of grid points                  ...    40463
Total number of batches                      ...      325
Average number of points per batch           ...      124
Average number of grid points per atom       ...     2529
UseSFitting                                  ... on
Grids setup in   0.9 sec
Initializing property integral containers    ... done (  0.0 sec)

SHARK setup successfully completed in   1.1 seconds

Maximum memory used throughout the entire STARTUP-calculation: 18.2 MB


           ************************************************************
           *        Program running with 6 parallel MPI-processes     *
           *              working on a common directory               *
           ************************************************************
-------------------------------------------------------------------------------
                                 ORCA GUESS
                   Start orbitals & Density for SCF / CASSCF
-------------------------------------------------------------------------------

------------
SCF SETTINGS
------------
Hamiltonian:
 Density Functional     Method          .... DFT(GTOs)
 Exchange Functional    Exchange        .... B88
   X-Alpha parameter    XAlpha          ....  0.666667
   Becke's b parameter  XBeta           ....  0.004200
 Correlation Functional Correlation     .... LYP
 LDA part of GGA corr.  LDAOpt          .... VWN-5
 Gradients option       PostSCFGGA      .... off
 Hybrid DFT is turned on
   Fraction HF Exchange ScalHFX         ....  0.200000
   Scaling of DF-GGA-X  ScalDFX         ....  0.720000
   Scaling of DF-GGA-C  ScalDFC         ....  0.810000
   Scaling of DF-LDA-C  ScalLDAC        ....  1.000000
   Perturbative correction              ....  0.000000
   NL short-range parameter             ....  4.800000
 RI-approximation to the Coulomb term is turned on
   Number of AuxJ basis functions       .... 404
   RIJ-COSX (HFX calculated with COS-X)).... on


General Settings:
 Integral files         IntName         .... orca
 Hartree-Fock type      HFTyp           .... RHF
 Total Charge           Charge          ....    0
 Multiplicity           Mult            ....    1
 Number of Electrons    NEL             ....   46
 Basis Dimension        Dim             ....  134
 Nuclear Repulsion      ENuc            ....    216.2193111036 Eh

Convergence Acceleration:
 AO-DIIS                CNVDIIS         .... on
   Start iteration      DIISMaxIt       ....    12
   Startup error        DIISStart       ....  0.200000
   # of expansion vecs  DIISMaxEq       ....     5
   Bias factor          DIISBfac        ....   1.050
   Max. coefficient     DIISMaxC        ....  10.000
 MO-DIIS                CNVKDIIS        .... off
 Trust-Rad. Augm. Hess. CNVTRAH         .... auto
   Auto Start mean grad. ratio tolernc. ....  1.125000
   Auto Start start iteration           ....    50
   Auto Start num. interpolation iter.  ....    10
   Max. Number of Micro iterations      ....    24
   Max. Number of Macro iterations      .... Maxiter - #DIIS iter
   Number of Davidson start vectors     ....     2
   Converg. threshold    (grad. norm)   ....   1.000e-05
   Grad. Scal. Fac. for Micro threshold ....   0.100
   Minimum threshold for Micro iter.    ....   1.000e-02
   NR start threshold (gradient norm)   ....   1.000e-04
   Initial trust radius                 ....   0.400
   Minimum AH scaling param. (alpha)    ....   1.000
   Maximum AH scaling param. (alpha)    .... 1000.000
   Quad. conv. algorithm                .... NR
   White noise on init. David. guess    .... on
   Maximum white noise                  ....   0.010
   Pseudo random numbers                .... off
   Inactive MOs                         .... canonical
   Orbital update algorithm             .... Taylor
   Preconditioner                       .... Diag
   Full preconditioner red. dimension   ....   250
 SOSCF                 CNVSOSCF           .... on
   Start iteration     SOSCFMaxIt         ....   150
   Startup grad/error  SOSCFStart         ....  0.003300
   Hessian update      SOSCFHessUp        .... L-BFGS
   Autom. constraints  SOSCFAutoConstrain .... off
 Level Shifting         CNVShift        .... on
   Level shift para.    LevelShift      ....    0.2500
   Turn off err/grad.   ShiftErr        ....    0.0010
 Zerner damping         CNVZerner       .... off
 Static damping         CNVDamp         .... on
   Fraction old density DampFac         ....    0.7000
   Max. Damping (<1)    DampMax         ....    0.9800
   Min. Damping (>=0)   DampMin         ....    0.0000
   Turn off err/grad.   DampErr         ....    0.1000

SCF Procedure:
 Maximum # iterations   MaxIter         ....   125
 SCF integral mode      SCFMode         .... Direct
   Integral package                     .... SHARK and LIBINT hybrid scheme
 Reset frequency        DirectResetFreq ....    20
 Integral Threshold     Thresh          ....  2.500e-11 Eh
 Primitive CutOff       TCut            ....  2.500e-12 Eh

Convergence Tolerance:
 Convergence Check Mode ConvCheckMode   .... Total+1el-Energy
 Convergence forced     ConvForced      .... 0
 Energy Change          TolE            ....  1.000e-08 Eh
 1-El. energy change                    ....  1.000e-05 Eh
 Orbital Gradient       TolG            ....  1.000e-05
 Orbital Rotation angle TolX            ....  1.000e-05
 DIIS Error             TolErr          ....  5.000e-07

------------------------------
INITIAL GUESS: MODEL POTENTIAL
------------------------------
Loading Hartree-Fock densities                     ... done
Calculating cut-offs                               ... done
Initializing the effective Hamiltonian             ... done
Setting up the integral package (SHARK)            ... done
Starting the Coulomb interaction                   ... done (   0.0 sec)
Making the grid                                    ... done (   0.1 sec)
Mapping shells                                     ... done
Starting the XC term evaluation                    ... done (   0.0 sec)
  promolecular density results
     # of electrons  =     45.991083433
     EX              =    -33.749842566
     EC              =     -1.465620726
     EX+EC           =    -35.215463293
Transforming the Hamiltonian                       ... done (   0.0 sec)
Diagonalizing the Hamiltonian                      ... done (   0.0 sec)
Back transforming the eigenvectors                 ... done (   0.0 sec)
Now organizing SCF variables                       ... done
                      ------------------
                      INITIAL GUESS DONE (   0.2 sec)
                      ------------------
             **** ENERGY FILE WAS UPDATED (orca.en.tmp) ****
Finished Guess after   0.3 sec
Maximum memory used throughout the entire GUESS-calculation: 8.5 MB


           ************************************************************
           *        Program running with 6 parallel MPI-processes     *
           *              working on a common directory               *
           ************************************************************

-------------------------------------------------------------------------------------------
                                      ORCA LEAN-SCF
                              memory conserving SCF solver
-------------------------------------------------------------------------------------------

----------------------------------------D-I-I-S--------------------------------------------
Iteration    Energy (Eh)           Delta-E    RMSDP     MaxDP     DIISErr   Damp  Time(sec)
-------------------------------------------------------------------------------------------
               ***  Starting incremental Fock matrix formation  ***
    1    -234.1004765352871289     0.00e+00  8.00e-03  7.63e-02  1.68e-01  0.700   0.8
    2    -234.1824807315503278    -8.20e-02  5.89e-03  4.70e-02  8.84e-02  0.700   0.5
                               ***Turning on AO-DIIS***
    3    -234.2181450363842430    -3.57e-02  2.50e-03  1.31e-02  3.38e-02  0.700   0.5
    4    -234.2384005327137686    -2.03e-02  4.44e-03  2.27e-02  1.76e-02  0.000   0.5
    5    -234.2815130713840119    -4.31e-02  7.15e-04  3.99e-03  5.24e-03  0.000   0.5
                              *** Initializing SOSCF ***
---------------------------------------S-O-S-C-F--------------------------------------
Iteration    Energy (Eh)           Delta-E    RMSDP     MaxDP     MaxGrad    Time(sec)
--------------------------------------------------------------------------------------
    6    -234.2817495530178746    -2.36e-04  2.71e-04  1.40e-03  1.66e-03     0.4
               *** Restarting incremental Fock matrix formation ***
    7    -234.2817784136314856    -2.89e-05  1.89e-04  1.00e-03  1.85e-04     0.8
    8    -234.2817783019814044     1.12e-07  6.36e-05  7.22e-04  3.65e-04     0.6
    9    -234.2817804489971820    -2.15e-06  4.28e-05  4.13e-04  9.78e-05     0.6
   10    -234.2817803859060461     6.31e-08  2.19e-05  2.19e-04  8.02e-05     0.6
   11    -234.2817806120816897    -2.26e-07  3.76e-06  3.50e-05  7.13e-06     0.5
   12    -234.2817806101298572     1.95e-09  2.10e-06  2.26e-05  1.47e-05     0.5
                 **** Energy Check signals convergence ****

               *****************************************************
               *                     SUCCESS                       *
               *           SCF CONVERGED AFTER  12 CYCLES          *
               *****************************************************

Recomputing exchange energy using gridx3       ... done (    1.184 sec)
Old exchange energy                            :     -6.904097728 Eh
New exchange energy                            :     -6.904098819 Eh
Exchange energy change after final integration :     -0.000001091 Eh
Total energy after final integration           :   -234.281781705 Eh
             **** ENERGY FILE WAS UPDATED (orca.en.tmp) ****

----------------
TOTAL SCF ENERGY
----------------

Total Energy       :       -234.28178170521392 Eh           -6375.13139 eV

Components:
Nuclear Repulsion  :        216.21931110361558 Eh            5883.62657 eV
Electronic Energy  :       -450.50109171769384 Eh          -12258.75793 eV
One Electron Energy:       -741.78213373619212 Eh          -20184.91804 eV
Two Electron Energy:        291.28104201849828 Eh            7926.16011 eV

Virial components:
Potential Energy   :       -465.73260174509551 Eh          -12673.22839 eV
Kinetic Energy     :        231.45082003988162 Eh            6298.09700 eV
Virial Ratio       :          2.01223137453064

DFT components:
N(Alpha)           :       23.000018016003 electrons
N(Beta)            :       23.000018016003 electrons
N(Total)           :       46.000036032005 electrons
E(X)               :      -27.364683524960 Eh       
E(C)               :       -1.743031002466 Eh       
E(XC)              :      -29.107714527426 Eh       

---------------
SCF CONVERGENCE
---------------

  Last Energy change         ...   -1.9518e-09  Tolerance :   1.0000e-08
  Last MAX-Density change    ...    2.2588e-05  Tolerance :   1.0000e-07
  Last RMS-Density change    ...    2.1035e-06  Tolerance :   5.0000e-09
  Last DIIS Error            ...    1.6575e-03  Tolerance :   5.0000e-07
  Last Orbital Gradient      ...    1.4726e-05  Tolerance :   1.0000e-05
  Last Orbital Rotation      ...    1.9741e-05  Tolerance :   1.0000e-05


----------------
ORBITAL ENERGIES
----------------

  NO   OCC          E(Eh)            E(eV) 
   0   2.0000     -10.189303      -277.2650 
   1   2.0000     -10.185333      -277.1570 
   2   2.0000     -10.184335      -277.1298 
   3   2.0000     -10.182411      -277.0775 
   4   2.0000     -10.181823      -277.0615 
   5   2.0000     -10.177660      -276.9482 
   6   2.0000      -0.801783       -21.8176 
   7   2.0000      -0.757443       -20.6111 
   8   2.0000      -0.704296       -19.1649 
   9   2.0000      -0.627312       -17.0700 
  10   2.0000      -0.577791       -15.7225 
  11   2.0000      -0.515390       -14.0245 
  12   2.0000      -0.475840       -12.9483 
  13   2.0000      -0.446779       -12.1575 
  14   2.0000      -0.437746       -11.9117 
  15   2.0000      -0.413090       -11.2407 
  16   2.0000      -0.387932       -10.5562 
  17   2.0000      -0.368938       -10.0393 
  18   2.0000      -0.357850        -9.7376 
  19   2.0000      -0.340401        -9.2628 
  20   2.0000      -0.326443        -8.8830 
  21   2.0000      -0.297063        -8.0835 
  22   2.0000      -0.227947        -6.2028 
  23   0.0000      -0.025286        -0.6881 
  24   0.0000       0.058514         1.5922 
  25   0.0000       0.076391         2.0787 
  26   0.0000       0.078936         2.1480 
  27   0.0000       0.094270         2.5652 
  28   0.0000       0.105928         2.8824 
  29   0.0000       0.129504         3.5240 
  30   0.0000       0.136118         3.7040 
  31   0.0000       0.143690         3.9100 
  32   0.0000       0.164076         4.4647 
  33   0.0000       0.168405         4.5825 
*Only the first 10 virtual orbitals were printed.

                    ********************************
                    * MULLIKEN POPULATION ANALYSIS *
                    ********************************

-----------------------
MULLIKEN ATOMIC CHARGES
-----------------------
   0 C :   -0.030716
   1 C :   -0.026553
   2 C :    0.003045
   3 C :   -0.074337
   4 C :    0.044250
   5 C :   -0.009727
   6 H :   -0.001292
   7 H :    0.021303
   8 H :    0.020152
   9 H :    0.021510
  10 H :    0.014553
  11 H :    0.015924
  12 H :    0.009200
  13 H :   -0.010184
  14 H :    0.011547
  15 H :   -0.008673
Sum of atomic charges:    0.0000000

--------------------------------
MULLIKEN REDUCED ORBITAL CHARGES
--------------------------------
  0 C s       :     3.113724  s :     3.113724
      pz      :     0.965604  p :     2.890621
      px      :     0.948675
      py      :     0.976342
      dz2     :     0.001831  d :     0.026371
      dxz     :     0.002488
      dyz     :     0.007238
      dx2y2   :     0.005800
      dxy     :     0.009013

  1 C s       :     3.126846  s :     3.126846
      pz      :     0.959178  p :     2.863879
      px      :     0.959309
      py      :     0.945392
      dz2     :     0.003125  d :     0.035828
      dxz     :     0.004334
      dyz     :     0.008372
      dx2y2   :     0.008468
      dxy     :     0.011529

  2 C s       :     3.097509  s :     3.097509
      pz      :     1.004476  p :     2.864913
      px      :     0.965435
      py      :     0.895002
      dz2     :     0.003063  d :     0.034534
      dxz     :     0.007304
      dyz     :     0.002487
      dx2y2   :     0.010988
      dxy     :     0.010692

  3 C s       :     3.164382  s :     3.164382
      pz      :     0.965080  p :     2.875081
      px      :     0.977979
      py      :     0.932022
      dz2     :     0.002533  d :     0.034874
      dxz     :     0.006266
      dyz     :     0.004384
      dx2y2   :     0.009363
      dxy     :     0.012329

  4 C s       :     2.979868  s :     2.979868
      pz      :     0.990393  p :     2.939028
      px      :     0.968771
      py      :     0.979864
      dz2     :     0.005739  d :     0.036854
      dxz     :     0.006155
      dyz     :     0.008502
      dx2y2   :     0.007548
      dxy     :     0.008910

  5 C s       :     3.008944  s :     3.008944
      pz      :     1.006393  p :     2.971907
      px      :     0.972066
      py      :     0.993448
      dz2     :     0.005526  d :     0.028876
      dxz     :     0.005413
      dyz     :     0.005902
      dx2y2   :     0.005054
      dxy     :     0.006981

  6 H s       :     0.978769  s :     0.978769
      pz      :     0.007723  p :     0.022523
      px      :     0.009244
      py      :     0.005556

  7 H s       :     0.955162  s :     0.955162
      pz      :     0.008347  p :     0.023535
      px      :     0.008671
      py      :     0.006517

  8 H s       :     0.956356  s :     0.956356
      pz      :     0.006350  p :     0.023491
      px      :     0.010245
      py      :     0.006896

  9 H s       :     0.955960  s :     0.955960
      pz      :     0.011427  p :     0.022530
      px      :     0.004317
      py      :     0.006786

 10 H s       :     0.962768  s :     0.962768
      pz      :     0.008943  p :     0.022680
      px      :     0.006449
      py      :     0.007288

 11 H s       :     0.961134  s :     0.961134
      pz      :     0.011936  p :     0.022942
      px      :     0.004016
      py      :     0.006989

 12 H s       :     0.967947  s :     0.967947
      pz      :     0.004995  p :     0.022853
      px      :     0.006151
      py      :     0.011707

 13 H s       :     0.987546  s :     0.987546
      pz      :     0.005857  p :     0.022638
      px      :     0.007056
      py      :     0.009725

 14 H s       :     0.965480  s :     0.965480
      pz      :     0.008614  p :     0.022973
      px      :     0.006660
      py      :     0.007700

 15 H s       :     0.985905  s :     0.985905
      pz      :     0.004757  p :     0.022768
      px      :     0.004723
      py      :     0.013289



                     *******************************
                     * LOEWDIN POPULATION ANALYSIS *
                     *******************************

----------------------
LOEWDIN ATOMIC CHARGES
----------------------
   0 C :   -0.051159
   1 C :   -0.031563
   2 C :   -0.052695
   3 C :   -0.018251
   4 C :   -0.043134
   5 C :   -0.053429
   6 H :    0.027539
   7 H :    0.021339
   8 H :    0.023819
   9 H :    0.031412
  10 H :    0.028914
  11 H :    0.023164
  12 H :    0.023335
  13 H :    0.022769
  14 H :    0.020746
  15 H :    0.027196

-------------------------------
LOEWDIN REDUCED ORBITAL CHARGES
-------------------------------
  0 C s       :     2.888245  s :     2.888245
      pz      :     1.007420  p :     3.094526
      px      :     1.021896
      py      :     1.065211
      dz2     :     0.005059  d :     0.068389
      dxz     :     0.006252
      dyz     :     0.017348
      dx2y2   :     0.016369
      dxy     :     0.023361

  1 C s       :     2.871792  s :     2.871792
      pz      :     0.982739  p :     3.068537
      px      :     1.005645
      py      :     1.080154
      dz2     :     0.007495  d :     0.091234
      dxz     :     0.010381
      dyz     :     0.020266
      dx2y2   :     0.022718
      dxy     :     0.030375

  2 C s       :     2.867210  s :     2.867210
      pz      :     0.999387  p :     3.095669
      px      :     1.069024
      py      :     1.027258
      dz2     :     0.007211  d :     0.089817
      dxz     :     0.016573
      dyz     :     0.005682
      dx2y2   :     0.030207
      dxy     :     0.030144

  3 C s       :     2.879452  s :     2.879452
      pz      :     0.960443  p :     3.051214
      px      :     1.065159
      py      :     1.025612
      dz2     :     0.005866  d :     0.087585
      dxz     :     0.013807
      dyz     :     0.008631
      dx2y2   :     0.025065
      dxy     :     0.034216

  4 C s       :     2.835625  s :     2.835625
      pz      :     1.053860  p :     3.117231
      px      :     1.023559
      py      :     1.039812
      dz2     :     0.014155  d :     0.090278
      dxz     :     0.014070
      dyz     :     0.021533
      dx2y2   :     0.019392
      dxy     :     0.021128

  5 C s       :     2.844367  s :     2.844367
      pz      :     1.060128  p :     3.137422
      px      :     1.017602
      py      :     1.059691
      dz2     :     0.013832  d :     0.071640
      dxz     :     0.012723
      dyz     :     0.014747
      dx2y2   :     0.013605
      dxy     :     0.016733

  6 H s       :     0.907408  s :     0.907408
      pz      :     0.022325  p :     0.065053
      px      :     0.027089
      py      :     0.015640

  7 H s       :     0.910202  s :     0.910202
      pz      :     0.025229  p :     0.068458
      px      :     0.025503
      py      :     0.017726

  8 H s       :     0.908916  s :     0.908916
      pz      :     0.018803  p :     0.067265
      px      :     0.029966
      py      :     0.018497

  9 H s       :     0.904295  s :     0.904295
      pz      :     0.032272  p :     0.064293
      px      :     0.012468
      py      :     0.019553

 10 H s       :     0.905221  s :     0.905221
      pz      :     0.024599  p :     0.065866
      px      :     0.019751
      py      :     0.021515

 11 H s       :     0.913085  s :     0.913085
      pz      :     0.033473  p :     0.063750
      px      :     0.012090
      py      :     0.018187

 12 H s       :     0.912982  s :     0.912982
      pz      :     0.012423  p :     0.063683
      px      :     0.018498
      py      :     0.032762

 13 H s       :     0.910415  s :     0.910415
      pz      :     0.017667  p :     0.066815
      px      :     0.019362
      py      :     0.029786

 14 H s       :     0.915614  s :     0.915614
      pz      :     0.023611  p :     0.063641
      px      :     0.019607
      py      :     0.020422

 15 H s       :     0.906679  s :     0.906679
      pz      :     0.014624  p :     0.066125
      px      :     0.013359
      py      :     0.038142



                      *****************************
                      * MAYER POPULATION ANALYSIS *
                      *****************************

  NA   - Mulliken gross atomic population
  ZA   - Total nuclear charge
  QA   - Mulliken gross atomic charge
  VA   - Mayer's total valence
  BVA  - Mayer's bonded valence
  FA   - Mayer's free valence

  ATOM       NA         ZA         QA         VA         BVA        FA
  0 C      6.0307     6.0000    -0.0307     3.9472     3.9472     0.0000
  1 C      6.0266     6.0000    -0.0266     4.0285     4.0285     0.0000
  2 C      5.9970     6.0000     0.0030     3.9542     3.9542    -0.0000
  3 C      6.0743     6.0000    -0.0743     4.0377     4.0377     0.0000
  4 C      5.9557     6.0000     0.0443     4.0021     4.0021    -0.0000
  5 C      6.0097     6.0000    -0.0097     4.0200     4.0200     0.0000
  6 H      1.0013     1.0000    -0.0013     0.9765     0.9765     0.0000
  7 H      0.9787     1.0000     0.0213     0.9899     0.9899     0.0000
  8 H      0.9798     1.0000     0.0202     0.9743     0.9743    -0.0000
  9 H      0.9785     1.0000     0.0215     0.9720     0.9720     0.0000
 10 H      0.9854     1.0000     0.0146     0.9960     0.9960    -0.0000
 11 H      0.9841     1.0000     0.0159     0.9861     0.9861     0.0000
 12 H      0.9908     1.0000     0.0092     0.9833     0.9833     0.0000
 13 H      1.0102     1.0000    -0.0102     0.9827     0.9827    -0.0000
 14 H      0.9885     1.0000     0.0115     0.9858     0.9858     0.0000
 15 H      1.0087     1.0000    -0.0087     0.9756     0.9756     0.0000

  Mayer bond orders larger than 0.100000
B(  0-C ,  1-C ) :   1.9401 B(  0-C ,  7-H ) :   0.9537 B(  0-C ,  8-H ) :   0.9463 
B(  1-C ,  2-C ) :   1.0846 B(  1-C ,  6-H ) :   0.9511 B(  2-C ,  3-C ) :   1.8865 
B(  2-C , 15-H ) :   0.9436 B(  3-C ,  4-C ) :   1.0532 B(  3-C , 13-H ) :   0.9487 
B(  4-C ,  5-C ) :   1.0898 B(  4-C ,  9-H ) :   0.9238 B(  4-C , 10-H ) :   0.9282 
B(  5-C , 11-H ) :   0.9746 B(  5-C , 12-H ) :   0.9652 B(  5-C , 14-H ) :   0.9705 


-------
TIMINGS
-------

Total SCF time: 0 days 0 hours 0 min 8 sec 

Total time                  ....       8.629 sec
Sum of individual times     ....       8.062 sec  ( 93.4%)

SCF preparation             ....       0.188 sec  (  2.2%)
Fock matrix formation       ....       7.642 sec  ( 88.6%)
  Startup                   ....       0.004 sec  (  0.1% of F)
  Split-RI-J                ....       0.660 sec  (  8.6% of F)
  Chain of spheres X        ....       5.790 sec  ( 75.8% of F)
  XC integration            ....       1.578 sec  ( 20.7% of F)
    XC Preparation          ....       0.000 sec  (  0.0% of XC)
    Basis function eval.    ....       0.464 sec  ( 29.4% of XC)
    Density eval.           ....       0.256 sec  ( 16.2% of XC)
    XC-Functional eval.     ....       0.089 sec  (  5.7% of XC)
    XC-Potential eval.      ....       0.293 sec  ( 18.6% of XC)
Diagonalization             ....       0.000 sec  (  0.0%)
Density matrix formation    ....       0.029 sec  (  0.3%)
Total Energy calculation    ....       0.015 sec  (  0.2%)
Population analysis         ....       0.021 sec  (  0.2%)
Orbital Transformation      ....       0.019 sec  (  0.2%)
Orbital Orthonormalization  ....       0.000 sec  (  0.0%)
DIIS solution               ....       0.089 sec  (  1.0%)
SOSCF solution              ....       0.059 sec  (  0.7%)
Finished LeanSCF after   8.6 sec

Maximum memory used throughout the entire LEANSCF-calculation: 11.8 MB


-------------------------------------------------------------------------------
                          DFT DISPERSION CORRECTION                            
                                                                               
                              DFTD3 V3.1  Rev 1                                
                          USING Becke-Johnson damping                          
-------------------------------------------------------------------------------
The B3LYP functional is recognized
Active option DFTDOPT                   ...         4   

molecular C6(AA) [au] = 2144.354988 


            DFT-D V3
 parameters
 s6 scaling factor         :     1.0000 
 a1 scaling factor         :     0.3981 
 s8 scaling factor         :     1.9889 
 a2 scaling factor         :     4.4211 
 ad hoc parameters k1-k3   :    16.0000     1.3333    -4.0000 

 Edisp/kcal,au: -13.306327989202  -0.021204981151 
 E6   /kcal   :  -6.447497815 
 E8   /kcal   :  -6.858830174 
 % E8         :  51.545626861 

-------------------------   ----------------
Dispersion correction           -0.021204981
-------------------------   ----------------


-------------------------   --------------------
FINAL SINGLE POINT ENERGY      -234.302986686365
-------------------------   --------------------



           ************************************************************
           *        Program running with 6 parallel MPI-processes     *
           *              working on a common directory               *
           ************************************************************
------------------------------------------------------------------------------
                         ORCA SCF GRADIENT CALCULATION
------------------------------------------------------------------------------

Nuc. rep. gradient        (SHARK) ... done (  0.0 sec)
HCore & Overlap gradient  (SHARK) ... done (  0.0 sec)
Split-RIJ-J gradient      (SHARK) ... done (  0.3 sec)
done (  4.3 sec)
XC gradient                       ... done (  0.9 sec)
Dispersion correction             ... done (  0.0 sec)

-------------------
DISPERSION GRADIENT
-------------------

   1   C   :    0.000605123   -0.000369287    0.000083461
   2   C   :    0.000528370    0.000087718    0.000130943
   3   C   :    0.000310854    0.000466807   -0.000036118
   4   C   :   -0.000139423    0.000383290   -0.000178739
   5   C   :   -0.000466165   -0.000106750   -0.000075385
   6   C   :   -0.000411557   -0.000097299    0.000069499
   7   H   :    0.000191548    0.000057377    0.000103324
   8   H   :    0.000212701   -0.000286836   -0.000053058
   9   H   :    0.000148616   -0.000148228    0.000031096
  10   H   :   -0.000180211   -0.000174301   -0.000185879
  11   H   :   -0.000155904   -0.000203781    0.000066097
  12   H   :   -0.000238765   -0.000006818    0.000156348
  13   H   :   -0.000189991   -0.000088870    0.000049068
  14   H   :   -0.000037760    0.000243419   -0.000119577
  15   H   :   -0.000244841    0.000005837   -0.000011015
  16   H   :    0.000067406    0.000237724   -0.000030063

Difference to translation invariance:
           :    0.0000000000    0.0000000000   -0.0000000000

Difference to rotation invariance:
           :    0.0000000000    0.0000000000    0.0000000000

Norm of the Dispersion gradient    ...    0.0015698092
RMS gradient                       ...    0.0002265824
MAX gradient                       ...    0.0006051229

------------------
CARTESIAN GRADIENT
------------------

   1   C   :   -0.000005524   -0.000009410    0.000057835
   2   C   :   -0.000123023    0.000020345    0.000016524
   3   C   :   -0.000018364   -0.000028815   -0.000037069
   4   C   :    0.000018149   -0.000015699   -0.000038211
   5   C   :    0.000012004    0.000142214   -0.000001413
   6   C   :    0.000008954   -0.000114195   -0.000058075
   7   H   :    0.000030672   -0.000011493   -0.000003367
   8   H   :    0.000029599   -0.000010449   -0.000054558
   9   H   :   -0.000018385   -0.000037918    0.000019381
  10   H   :    0.000023690    0.000028342    0.000064032
  11   H   :    0.000024947   -0.000000603   -0.000034246
  12   H   :   -0.000000760   -0.000019948    0.000036622
  13   H   :    0.000031443    0.000028983    0.000011972
  14   H   :    0.000004974   -0.000033751    0.000013759
  15   H   :   -0.000019572    0.000026670    0.000019345
  16   H   :    0.000001195    0.000035726   -0.000012532

Difference to translation invariance:
           :    0.0000000000    0.0000000000    0.0000000000

Difference to rotation invariance:
           :    0.0000388839   -0.0000548149    0.0000368575

Norm of the Cartesian gradient     ...    0.0002883632
RMS gradient                       ...    0.0000416216
MAX gradient                       ...    0.0001422142

-------
TIMINGS
-------

Total SCF gradient time     ....        5.572 sec

Densities                   ....       0.001 sec  (  0.0%)
One electron gradient       ....       0.049 sec  (  0.9%)
RI-J Coulomb gradient       ....       0.274 sec  (  4.9%)
COSX gradient               ....       4.339 sec  ( 77.9%)
XC gradient                 ....       0.871 sec  ( 15.6%)

Maximum memory used throughout the entire SCFGRAD-calculation: 28.4 MB


           ************************************************************
           *        Program running with 6 parallel MPI-processes     *
           *              working on a common directory               *
           ************************************************************

------------------------------------------------------------------------------
                              ORCA PROPERTY CALCULATIONS
------------------------------------------------------------------------------

GBWName                                 ... orca.gbw
Number of atoms                         ...     16
Number of basis functions               ...    134
Max core memory                         ...   4096 MB

Electric properties:
Dipole moment                           ... YES
Quadrupole moment                       ...  NO
Static polarizability (Dipole/Dipole)   ...  NO
Static polarizability (Dipole/Quad.)    ...  NO
Static polarizability (Quad./Quad.)     ...  NO
Static polarizability (Velocity)        ...  NO
Static hyperpolarizability              ...  NO

Atomic electric properties:
Dipole moment                           ...  NO
Quadrupole moment                       ...  NO
Static polarizability                   ...  NO

Choice of electric origin               ... Center of mass
Position of electric origin             ...     0.076434     0.019911    -0.038158

General magnetic properties:
Magnetizability                         ...  NO

EPR properties:
g-Tensor (aka g-matrix)                 ...  NO
Zero-Field splitting spin-orbit         ...  NO
Zero-field splitting spin-spin          ...  NO
Hyperfine couplings                     ...  NO (   0 nuclei)
Quadrupole couplings                    ...  NO (   0 nuclei)
Contact density                         ...  NO (   0 nuclei)

NMR properties:
Chemical shifts                         ...  NO (   0 nuclei)
Spin-rotation constants                 ...  NO (   0 nuclei)
Spin-spin couplings                     ...  NO (   0 nuclei,    0 pairs)

Choice of magnetic origin               ... GIAO
Position of magnetic origin             ...     0.000000     0.000000     0.000000

Properties with geometric perturbations:
SCF Hessian                             ...  NO
IR spectrum                             ...  NO
VCD spectrum                            ...  NO
X-ray spectroscopy properties:
SCF XES/XAS/RIXS spectra                ...  NO

SCF SOC stabilization energy            ...  NO
Diagonal Born-Oppenheimer correction    ...  NO

-------------
DIPOLE MOMENT
-------------

Method             : SCF
Type of density    : Electron Density
Multiplicity       :   1
Irrep              :   0
Energy             :  -234.2817817052139162 Eh
Basis              : AO
                                X                 Y                 Z
Electronic contribution:      3.769191701       1.694810796      -0.333167456
Nuclear contribution   :     -3.875125449      -1.734688347       0.327356475
                        -----------------------------------------
Total Dipole Moment    :     -0.105933748      -0.039877550      -0.005810981
                        -----------------------------------------
Magnitude (a.u.)       :      0.113339955
Magnitude (Debye)      :      0.288087271



--------------------
Rotational spectrum 
--------------------
 
Rotational constants in cm-1:             0.240230             0.064904             0.054254 
Rotational constants in MHz :          7201.928007          1945.773516          1626.504217 

Dipole components along the rotational axes: 
x,y,z [a.u.] :     0.105727    -0.040278    -0.006741 
x,y,z [Debye]:     0.268737    -0.102377    -0.017133 

 

Dipole moment calculation done in   0.0 sec 

Maximum memory used throughout the entire PROP-calculation: 6.6 MB

--------------------------------
SUGGESTED CITATIONS FOR THIS RUN
--------------------------------

Below you find a list of papers that are relevant to this ORCA run
We neither can nor want to force you to cite these papers, but we appreciate if you do
You receive ORCA, which is the product of decades of hard work by many enthusiastic individuals, for free
The only thing we kindly ask in return is that you cite our papers,
We deeply appreciate it, if you show your appreciation for ORCA by not just citing the generic ORCA reference.

Please note that relegating all ORCA citations to the supporting information does *not* help us.
SI sections are not indexed - citations you put there will not count into any citation statistics
But we need these citations in order to attract the funding resources that allow us to do what we are doing

Therefore, if you are a happy ORCA user, please consider citing a few of the papers listed below in the main body of your paper

In addition to the list printed below, the program has created the file orca.bibtex that contains the list in bibtex format
You can import this file easily into all common literature databanks and citation aid programs


List of essential papers. We consider these as the minimum necessary citations

  1. Neese, F.
     Software update: the ORCA program system, version 6.0
     WIRES Comput. Molec. Sci. 2025 15(1), e70019
     doi.org/10.1002/wcms.7019

List of papers to cite with high priority. The work reported in these papers was absolutely
necessary for this run to complete.
Our perspective: the developers of density functionals and basis sets usually get cited in chemistry papers
Good! But without the algorithms to do something with them, the functionals or basis sets would not do anything.
Hence, in our opinion, the algorithm design and method developments papers are equally worthy of getting cited

  1. Neese, F.
     An improvement of the resolution of the identity approximation for the formation of the Coulomb matrix
     J. Comp. Chem. 2003 24(14), 1740-1747
     doi.org/10.1002/jcc.10318
  2. Neese, F.; Wennmohs, F.; Hansen, A.; Becker, U.
     Efficient, approximate and parallel Hartree-Fock and hybrid DFT calculations. A 'chain-of-spheres' algorithm for the Hartree-Fock exchange
     Chem. Phys. 2009 356(1-3), 98-109
     doi.org/10.1016/j.chemphys.2008.10.036
  3. Grimme, S.; Antony, J.; Ehrlich, S.; Krieg, H.
     A consistent and accurate ab initio parametrization of density functional dispersion correction (DFT-D) for the 94 elements H-Pu
     J. Chem. Phys. 2010 132 , 154104
     doi.org/10.1063/1.3382344
  4. Grimme, S.; Ehrlich, S.; Goerigk, L.
     Effect of the damping function in dispersion corrected density functional theory
     J. Comput. Chem. 2011 32(7), 1456-1465
     doi.org/10.1002/jcc.21759
  5. Helmich-Paris, B.; de Souza, B.; Neese, F.; Izsák, R.
     An improved chain of spheres for exchange algorithm
     J. Chem. Phys. 2021 155(10), 104109
     doi.org/10.1063/5.0058766
  6. Neese, F.
     The SHARK Integral Generation and Digestion System
     J. Comp. Chem. 2022 44(3), 381
     doi.org/10.1002/jcc.26942

List of suggested additional citations. These are papers that are important in the 'surrounding' of 
of this run, or papers that preceded the highly important papers. If you like your results we are grateful for a citation.

  1. Izsak, R.; Neese, F.
     An overlap fitted chain of spheres exchange method
     J. Chem. Phys. 2011 135 , 144105
     doi.org/10.1063/1.3646921
  2. Izsak, R.; Hansen, A.; Neese, F.
     The resolution of identity and chain of spheres approximations for the LPNO-CCSD singles Fock term
     Molec. Phys. 2012 110 , 2413-2417
     doi.org/10.1080/00268976.2012.687466
  3. Neese, F.
     The ORCA program system
     WIRES Comput. Molec. Sci. 2012 2(1), 73-78
     doi.org/10.1002/wcms.81
  4. Izsak, R.; Neese, F.; Klopper, W.
     Robust fitting techniques in the chain of spheres approximation to the Fock exchange: The role of the complementary space
     J. Chem. Phys. 2013 139 , 
     doi.org/10.1063/1.4819264
  5. Neese, F.
     Software update: the ORCA program system, version 4.0
     WIRES Comput. Molec. Sci. 2018 8(1), 1-6
     doi.org/10.1002/wcms.1327
  6. Neese, F.; Wennmohs, F.; Becker, U.; Riplinger, C.
     The ORCA quantum chemistry program package
     J. Chem. Phys. 2020 152(22), 224108
     doi.org/10.1063/5.0004608
  7. Neese, F.
     Software update: The ORCA program system—Version 5.0
     WIRES Comput. Molec. Sci. 2022 12(1), e1606
     doi.org/10.1002/wcms.1606

List of optional additional citations

  1. Neese, F.
     Approximate second-order SCF convergence for spin unrestricted wavefunctions
     Chem. Phys. Lett. 2000 325(1-3), 93-98
     doi.org/10.1016/s0009-2614(00)00662-x

Timings for individual modules:

Sum of individual times          ...       17.550 sec (=   0.292 min)
Startup calculation              ...        1.468 sec (=   0.024 min)   8.4 %
SCF iterations                   ...        9.598 sec (=   0.160 min)  54.7 %
Property calculations            ...        0.434 sec (=   0.007 min)   2.5 %
SCF Gradient evaluation          ...        6.050 sec (=   0.101 min)  34.5 %
                             ****ORCA TERMINATED NORMALLY****
TOTAL RUN TIME: 0 days 0 hours 0 minutes 18 seconds 144 msec
