
                                 *****************
                                 * O   R   C   A *
                                 *****************

                                            #,                                       
                                            ###                                      
                                            ####                                     
                                            #####                                    
                                            ######                                   
                                           ########,                                 
                                     ,,################,,,,,                         
                               ,,#################################,,                 
                          ,,##########################################,,             
                       ,#########################################, ''#####,          
                    ,#############################################,,   '####,        
                  ,##################################################,,,,####,       
                ,###########''''           ''''###############################       
              ,#####''   ,,,,##########,,,,          '''####'''          '####       
            ,##' ,,,,###########################,,,                        '##       
           ' ,,###''''                  '''############,,,                           
         ,,##''                                '''############,,,,        ,,,,,,###''
      ,#''                                            '''#######################'''  
     '                                                          ''''####''''         
             ,#######,   #######,   ,#######,      ##                                
            ,#'     '#,  ##    ##  ,#'     '#,    #''#        ,####,    ,#,          
            ##       ##  ##   ,#'  ##            #'  '#       #'       ,# #          
            ##       ##  #######   ##           ,######,      #####,      #          
            '#,     ,#'  ##    ##  '#,     ,#' ,#      #,     #,   #      #          
             '#######'   ##     ##  '#######'  #'      '#     '####' #    #          



                #########################################################
                #                        -***-                          #
                #          Department of theory and spectroscopy        #
                #                                                       #
                #                      Frank Neese                      #
                #                                                       #
                #     Directorship, Architecture, Infrastructure        #
                #                    SHARK, DRIVERS                     #
                #        Core code/Algorithms in most modules           #
                #                                                       #
                #        Max Planck Institute fuer Kohlenforschung      #
                #                Kaiser Wilhelm Platz 1                 #
                #                 D-45470 Muelheim/Ruhr                 #
                #                      Germany                          #
                #                                                       #
                #                  All rights reserved                  #
                #                        -***-                          #
                #########################################################


                         Program Version 6.1.0  -  RELEASE   -
                                (GIT: $679e74b$)
                          ($2025-06-10 18:02:51 +0200$)


 With contributions from (in alphabetic order):
[Max-Planck-Institut fuer Kohlenforschung]                               
  Daniel Aravena         : Magnetic Suceptibility                        
  Michael Atanasov       : Ab Initio Ligand Field Theory (pilot matlab implementation)
  Alexander A. Auer      : GIAO ZORA, VPT2 properties, NMR spectrum      
  Ute Becker             : All parallelization in ORCA, NUMFREQ, NUMCALC 
  Giovanni Bistoni       : ED, misc. LED, open-shell LED, HFLD           
  Dmytro Bykov           : pre 5.0 version of the SCF Hessian            
  Marcos Casanova-Páez   : Triplet and SCS-CIS(D). UHF-(DLPNO)-IP/EA/STEOM-CCSD. UHF-CVS-IP/STEOM-CCSD   
  Vijay G. Chilkuri      : MRCI spin determinant printing, contributions to CSF-ICE 
  Pauline Colinet        : FMM embedding                                 
  Dipayan Datta          : RHF DLPNO-CCSD density                        
  Achintya Kumar Dutta   : EOM-CC, STEOM-CC                              
  Nicolas Foglia         : Exact transition moments, OPA infrastructure, MCD improvements    
  Dmitry Ganyushin       : Spin-Orbit,Spin-Spin,Magnetic field MRCI      
  Miquel Garcia-Rates    : C-PCM and meta-GGA Hessian, CCSD/C-PCM, Gaussian charge scheme 
  Tiago L. C. Gouveia    : GS-ROHF, GS-ROCIS                             
  Yang Guo               : DLPNO-NEVPT2, F12-NEVPT2, CIM, IAO-localization        
  Andreas Hansen         : Spin unrestricted coupled pair/coupled cluster methods 
  Ingolf Harden          : AUTO-CI MPn and infrastructure                
  Benjamin Helmich-Paris : MC-RPA, TRAH-(SCF,CASSCF), AVAS, COSX integrals, SCF dyn. polar., MC-PDFT, srDFT 
  Lee Huntington         : MR-EOM, pCC                                   
  Robert Izsak           : Overlap fitted RIJCOSX, COSX-SCS-MP3, EOM     
  Riya Kayal             : Wick's Theorem for AUTO-CI, AUTO-CI UHF-CCSDT 
  Emily Kempfer          : AUTO-CI RHF CISDT and CCSDT, approximate NEVPT4
  Christian Kollmar      : KDIIS, OOCD, Brueckner-CCSD(T), CCSD density, CASPT2, CASPT2-K, improved NEVPT2 
  Axel Koslowski         : Symmetry handling                             
  Simone Kossmann        : meta-GGA functionals, TD-DFT gradient, OOMP2, (MP2 Hessian; deprecated post 5.0) 
  Lucas Lang             : DCDCAS, Hyperfine gauge corrections, ICE-SOC+SSC
  Marvin Lechner         : AUTO-CI (C++ implementation), FIC-MRCC        
  Spencer Leger          : CASSCF response                               
  Dagmar Lenk            : GEPOL surface, SMD, ORCA-2-JSON               
  Dimitrios Liakos       : Extrapolation schemes; Compound Job, Property file
  Dimitrios Manganas     : Further ROCIS development; embedding schemes. LFT, Crystal Embedding 
  Dimitrios Pantazis     : SARC Basis sets                               
  Anastasios Papadopoulos: AUTO-CI, single reference methods and gradients 
  Taras Petrenko         : pre 6.0 DFT Hessian and TD-DFT gradient,  ECA, NRVS 
  Petra Pikulova         : Analytic Raman intensities                    
  Peter Pinski           : DLPNO-MP2, DLPNO-MP2 Gradient                 
  Shashank Vittal Rao    : ES-AILFT, MagRelax                            
  Christoph Reimann      : Effective Core Potentials                     
  Marius Retegan         : Local ZFS, SOC                                
  Christoph Riplinger    : Optimizer, TS searches, QM/MM, DLPNO-CCSD(T), (RO)-DLPNO pert. Triples 
  Michael Roemelt        : Original ROCIS implementation, recursive CI coupling coefficients
  Masaaki Saitow         : Open-shell DLPNO-CCSD energy and density      
  Barbara Sandhoefer     : DKH picture change effects                    
  Yorick L. A. Schmerwitz: GMF and freeze-and-release deltaSCF, NEB S-IDPP initial path                    
  Kantharuban Sivalingam : CASSCF convergence/infrastructure, NEVPT2, NEVPT3, NEVPT4(SD), FIC-MRCI and CEPA variants
  Bernardo de Souza      : ESD, SOC TD-DFT                               
  Georgi L. Stoychev     : AutoAux, RI-MP2 NMR, DLPNO-MP2 response, X2C  
  Van Anh Tran           : RI-MP2 g-tensors                              
  Willem Van den Heuvel  : Paramagnetic NMR                              
  Zikuan Wang            : NOTCH, Electric field optimization            
  Frank Wennmohs         : Technical directorship and infrastructure     
  Hang Xu                : AUTO-CI-Response properties                   
                                                                         
[FACCTs GmbH]                                                            
  Markus Bursch, Nicolas Foglia, Miquel Garcia-Rates, Ingolf Harden, Hagen Neugebauer, Anastasios Papadopoulos, 
  Christoph Riplinger, Bernardo de Souza, Georgi L. Stoychev                                                    
                                                                 
  APM, various basis sets, CI-OPT, improved COSX, DLPNO-Multilevel,           
  DOCKER, DRACO, updates on ESD, Fragmentator, GOAT, IRC, LR-CPCM, L-BFGS, MBIS, meta-GGA TD-DFT gradient, ML-optimized integration grids, 
  MM, NACMEs, nearIR, NEB, NEB-TS, NL-DFT gradient (VV10), 2- and 3-layer-ONIOM, interface openCOSMO-RS, QMMM,   
  Crystal-QMMM, RESP, rigid body optimization, SF, symmetry and pop. for TD-DFT, various functionals, SOLVATOR                                   
                                                                         
[Other institutions]                                                     
  V. Asgeirsson          : NEB                                           
  Christoph Bannwarth    : sTDA-DFT, sTD-DFT, PBEh-3c, B97-3c, D3        
  Giovanni Bistoni       : ETS/NOCV, ADLD/ADEX, COVALED                  
  Martin Brehm           : Molecular dynamics                            
  Ronald Cardenas        : ETS/NOCV                                      
  Martina Colucci        : COVALED                                       
  Sebastian Ehlert       : rSCAN, r2SCAN, r2SCAN-3c, D4, dhf basis sets  
  Marvin Friede          : D4 for Fr, Ra, Ac-Lr                          
  Lars Goerigk           : TD-DFT with DH, B97 family of functionals     
  Stefan Grimme          : VdW corrections, initial TS optimization, DFT functionals, gCP, sTDA/sTD-DF 
  Waldemar Hujo          : DFT-NL                                        
  H. Jonsson             : NEB                                           
  Holger Kruse           : gCP                                           
  Marcel Mueller         : wB97X-3c, vDZP basis set                      
  Hagen Neugebauer       : wr2SCAN, Native XTB                           
  Gianluca Regni         : ADLD/ADEX                                     
  Tobias Risthaus        : pre 6.0 range-separated hybrid DFT and stability analysis
  Lukas Wittmann         : regularized MP2, r2SCAN double-hybrids, wr2SCAN        
                                                                         
We gratefully acknowledge several colleagues who have allowed us to      
interface, adapt or use parts of their codes:                            
  Ed Valeev, F. Pavosevic, A. Kumar             : LibInt (2-el integral package), F12 methods 
  Garnet Chan, S. Sharma, J. Yang, R. Olivares  : DMRG                   
  Ulf Ekstrom                                   : XCFun DFT Library      
  Mihaly Kallay                                 : mrcc  (arbitrary order and MRCC methods)
  Frank Weinhold                                : gennbo (NPA and NBO analysis)           
  Simon Mueller                                 : openCOSMO-RS                            
  Christopher J. Cramer and Donald G. Truhlar   : smd solvation model                     
  S Lehtola, MJT Oliveira, MAL Marques          : LibXC Library                           
  Liviu Ungur et al                             : ANISO software                          


 Your calculation uses the libint2 library for the computation of 2-el integrals
 For citations please refer to: http://libint.valeyev.net

 Your ORCA version has been built with support for libXC version: 7.0.0
 For citations please refer to: https://libxc.gitlab.io

 This ORCA versions uses:
   CBLAS   interface :  Fast vector & matrix operations
   LAPACKE interface :  Fast linear algebra routines
   SCALAPACK package :  Parallel linear algebra routines
   Shared memory     :  Shared parallel matrices
   BLAS/LAPACK       :  OpenBLAS 0.3.29  USE64BITINT DYNAMIC_ARCH NO_AFFINITY Zen SINGLE_THREADED
        Core in use  :  Zen
   Copyright (c) 2011-2014, The OpenBLAS Project


  ***********************************
  * Starting time: Wed Sep 10 13:37:12 2025
  * Host name:     wyk-Server
  * Process ID:    2304150
  * Working dir.:  /home/wyk/Documents/code/openQDC/MGMR/singlepointcalc/84/sp
  ***********************************

Your calculation utilizes the atom-pairwise dispersion correction
with the Becke-Johnson damping scheme (D3BJ)


Warning: RI is on but no J-basis has been assigned. Assigning Def2/J (nothing to worry about!)
================================================================================

----- Orbital basis set information -----
Your calculation utilizes the basis: def2-SVP
   F. Weigend and R. Ahlrichs, Phys. Chem. Chem. Phys. 7, 3297 (2005).

----- AuxJ basis set information -----
Your calculation utilizes the auxiliary basis: def2/J
   H-Rn: F. Weigend, Phys. Chem. Chem. Phys. 8, 1057 (2006).
   Fr-Lr: K. Eichkorn, F. Weigend, O. Treutler, R. Ahlrichs; Theor. Chem. Acc. 97, 119 (1997).

================================================================================
                                        WARNINGS
                       Please study these warnings very carefully!
================================================================================


================================================================================
                                       INPUT FILE
================================================================================
NAME = orca.inp
|  1> ! B3LYP def2-SVP d3 EnGrad 
|  2> %pal nprocs 6 end 
|  3> *xyz 0 1 
|  4> C   1.24527177061673 1.00536305657939 -2.03904721073632
|  5> C   0.59162924834773 0.47889186629727 -0.79780842228829
|  6> C   0.70659753492719 0.94379625936774 0.46068729459688
|  7> C   0.12634894380879 0.07749846729482 1.54997185017444
|  8> O   -0.16294377518431 -1.16709924188615 0.89377768061515
|  9> Cl   -1.80781217920061 -1.18248729115109 -1.71000345564951
| 10> S   -1.9133476210246 -1.7010102757469 0.92811370979487
| 11> O   -2.68944870273662 -0.50947061623721 1.24931248887064
| 12> Cl   -1.54746566739457 -2.61062940064166 2.94926097350945
| 13> H   0.48895404014158 1.26251581893855 -2.79740898344146
| 14> H   1.89291993662446 0.23216248434936 -2.48505417691199
| 15> H   1.85772336376825 1.89503416700952 -1.82917330006574
| 16> H   -0.37351934503492 -0.20897763122391 -1.15632912150317
| 17> H   1.27917378793791 1.83711602418739 0.73185831423567
| 18> H   0.83043387485275 -0.1031042958778 2.37748550020373
| 19> H   -0.80587869045381 0.49905629098162 1.96683897500534
| 20> H   0.28136348000406 -0.74865568224096 -0.2924821164097
| 21> *
| 22> 
| 23>                          ****END OF INPUT****
================================================================================

                     *******************************
                     * Energy+Gradient Calculation *
                     *******************************

---------------------------------
CARTESIAN COORDINATES (ANGSTROEM)
---------------------------------
  C      1.245272    1.005363   -2.039047
  C      0.591629    0.478892   -0.797808
  C      0.706598    0.943796    0.460687
  C      0.126349    0.077498    1.549972
  O     -0.162944   -1.167099    0.893778
  Cl    -1.807812   -1.182487   -1.710003
  S     -1.913348   -1.701010    0.928114
  O     -2.689449   -0.509471    1.249312
  Cl    -1.547466   -2.610629    2.949261
  H      0.488954    1.262516   -2.797409
  H      1.892920    0.232162   -2.485054
  H      1.857723    1.895034   -1.829173
  H     -0.373519   -0.208978   -1.156329
  H      1.279174    1.837116    0.731858
  H      0.830434   -0.103104    2.377486
  H     -0.805879    0.499056    1.966839
  H      0.281363   -0.748656   -0.292482

----------------------------
CARTESIAN COORDINATES (A.U.)
----------------------------
  NO LB      ZA    FRAG     MASS         X           Y           Z
   0 C     6.0000    0    12.011    2.353223    1.899861   -3.853241
   1 C     6.0000    0    12.011    1.118017    0.904974   -1.507639
   2 C     6.0000    0    12.011    1.335276    1.783516    0.870573
   3 C     6.0000    0    12.011    0.238765    0.146451    2.929022
   4 O     8.0000    0    15.999   -0.307919   -2.205498    1.688995
   5 Cl   17.0000    0    35.453   -3.416270   -2.234577   -3.231438
   6 S    16.0000    0    32.060   -3.615703   -3.214444    1.753881
   7 O     8.0000    0    15.999   -5.082321   -0.962760    2.360858
   8 Cl   17.0000    0    35.453   -2.924286   -4.933375    5.573296
   9 H     1.0000    0     1.008    0.923989    2.385809   -5.286337
  10 H     1.0000    0     1.008    3.577100    0.438724   -4.696072
  11 H     1.0000    0     1.008    3.510588    3.581096   -3.456637
  12 H     1.0000    0     1.008   -0.705849   -0.394910   -2.185145
  13 H     1.0000    0     1.008    2.417288    3.471646    1.383012
  14 H     1.0000    0     1.008    1.569293   -0.194839    4.492796
  15 H     1.0000    0     1.008   -1.522890    0.943080    3.716787
  16 H     1.0000    0     1.008    0.531700   -1.414754   -0.552711

--------------------------------
INTERNAL COORDINATES (ANGSTROEM)
--------------------------------
 C      0   0   0     0.000000000000     0.00000000     0.00000000
 C      1   0   0     1.498363838012     0.00000000     0.00000000
 C      2   1   0     1.346538254575   128.00092162     0.00000000
 C      3   2   1     1.507879681893   116.35618546   190.24436954
 O      4   3   2     1.436420733325   104.19858988    11.17841774
 Cl     2   1   3     3.057711505019   106.62471378   160.00722707
 S      5   4   3     1.830342475743   115.89851157   239.54656986
 O      7   5   4     1.457829998628   105.95202214    18.19906237
 Cl     7   5   4     2.246399968391    88.81005252   275.35287189
 H      1   2   3     1.101479292098   110.66101322   236.75026061
 H      1   2   3     1.102818881643   110.17357437   118.91036476
 H      1   2   3     1.100299367022   111.64855761   358.28971035
 H      2   1   3     1.238229924002   107.17941132   160.76369500
 H      3   2   1     1.095170073377   123.89549320     3.43370768
 H      4   3   2     1.101422620602   113.01416997   129.67985465
 H      4   3   2     1.104779417150   112.21414548   252.85713254
 H     13   2   1     1.210931691504    67.63484739   134.93353484

---------------------------
INTERNAL COORDINATES (A.U.)
---------------------------
 C      0   0   0     0.000000000000     0.00000000     0.00000000
 C      1   0   0     2.831497302815     0.00000000     0.00000000
 C      2   1   0     2.544588529995   128.00092162     0.00000000
 C      3   2   1     2.849479641682   116.35618546   190.24436954
 O      4   3   2     2.714441799070   104.19858988    11.17841774
 Cl     2   1   3     5.778237341027   106.62471378   160.00722707
 S      5   4   3     3.458846010438   115.89851157   239.54656986
 O      7   5   4     2.754899447221   105.95202214    18.19906237
 Cl     7   5   4     4.245080727508    88.81005252   275.35287189
 H      1   2   3     2.081494204250   110.66101322   236.75026061
 H      1   2   3     2.084025661622   110.17357437   118.91036476
 H      1   2   3     2.079264468998   111.64855761   358.28971035
 H      2   1   3     2.339915447190   107.17941132   160.76369500
 H      3   2   1     2.069571508749   123.89549320     3.43370768
 H      4   3   2     2.081387110643   113.01416997   129.67985465
 H      4   3   2     2.087730536807   112.21414548   252.85713254
 H     13   2   1     2.288329263829    67.63484739   134.93353484

---------------------
BASIS SET INFORMATION
---------------------
There are 5 groups of distinct atoms

 Group   1 Type C   : 7s4p1d contracted to 3s2p1d pattern {511/31/1}
 Group   2 Type O   : 7s4p1d contracted to 3s2p1d pattern {511/31/1}
 Group   3 Type Cl  : 10s7p1d contracted to 4s3p1d pattern {5311/511/1}
 Group   4 Type S   : 10s7p1d contracted to 4s3p1d pattern {5311/511/1}
 Group   5 Type H   : 4s1p contracted to 2s1p pattern {31/1}

Atom   0C    basis set group =>   1
Atom   1C    basis set group =>   1
Atom   2C    basis set group =>   1
Atom   3C    basis set group =>   1
Atom   4O    basis set group =>   2
Atom   5Cl   basis set group =>   3
Atom   6S    basis set group =>   4
Atom   7O    basis set group =>   2
Atom   8Cl   basis set group =>   3
Atom   9H    basis set group =>   5
Atom  10H    basis set group =>   5
Atom  11H    basis set group =>   5
Atom  12H    basis set group =>   5
Atom  13H    basis set group =>   5
Atom  14H    basis set group =>   5
Atom  15H    basis set group =>   5
Atom  16H    basis set group =>   5
---------------------------------
AUXILIARY/J BASIS SET INFORMATION
---------------------------------
There are 5 groups of distinct atoms

 Group   1 Type C   : 12s5p4d2f1g contracted to 6s4p3d1f1g pattern {711111/2111/211/2/1}
 Group   2 Type O   : 12s5p4d2f1g contracted to 6s4p3d1f1g pattern {711111/2111/211/2/1}
 Group   3 Type Cl  : 14s5p5d2f1g contracted to 8s4p3d1f1g pattern {71111111/2111/311/2/1}
 Group   4 Type S   : 14s5p5d2f1g contracted to 8s4p3d1f1g pattern {71111111/2111/311/2/1}
 Group   5 Type H   : 5s2p1d contracted to 3s1p1d pattern {311/2/1}

Atom   0C    basis set group =>   1
Atom   1C    basis set group =>   1
Atom   2C    basis set group =>   1
Atom   3C    basis set group =>   1
Atom   4O    basis set group =>   2
Atom   5Cl   basis set group =>   3
Atom   6S    basis set group =>   4
Atom   7O    basis set group =>   2
Atom   8Cl   basis set group =>   3
Atom   9H    basis set group =>   5
Atom  10H    basis set group =>   5
Atom  11H    basis set group =>   5
Atom  12H    basis set group =>   5
Atom  13H    basis set group =>   5
Atom  14H    basis set group =>   5
Atom  15H    basis set group =>   5
Atom  16H    basis set group =>   5


           ************************************************************
           *        Program running with 6 parallel MPI-processes     *
           *              working on a common directory               *
           ************************************************************
------------------------------------------------------------------------------
                             ORCA STARTUP CALCULATIONS
                           -- RI-GTO INTEGRALS CHOSEN --
------------------------------------------------------------------------------
------------------------------------------------------------------------------
                   ___                                                        
                  /   \      - P O W E R E D   B Y -                         
                 /     \                                                     
                 |  |  |   _    _      __       _____    __    __             
                 |  |  |  | |  | |    /  \     |  _  \  |  |  /  |          
                  \  \/   | |  | |   /    \    | | | |  |  | /  /          
                 / \  \   | |__| |  /  /\  \   | |_| |  |  |/  /          
                |  |  |   |  __  | /  /__\  \  |    /   |      \           
                |  |  |   | |  | | |   __   |  |    \   |  |\   \          
                \     /   | |  | | |  |  |  |  | |\  \  |  | \   \       
                 \___/    |_|  |_| |__|  |__|  |_| \__\ |__|  \__/        
                                                                              
                      - O R C A' S   B I G   F R I E N D -                    
                                      &                                       
                       - I N T E G R A L  F E E D E R -                       
                                                                              
 v1 FN, 2020, v2 2021, v3 2022-2024                                           
------------------------------------------------------------------------------


----------------------
SHARK INTEGRAL PACKAGE
----------------------

Number of atoms                             ...     17
Number of basis functions                   ...    178
Number of shells                            ...     84
Maximum angular momentum                    ...      2
Integral batch strategy                     ... SHARK/LIBINT Hybrid
RI-J (if used) integral strategy            ... SPLIT-RIJ (Revised 2003 algorithm where possible)
Printlevel                                  ...      1
Contraction scheme used                     ... SEGMENTED contraction
Prescreening option                         ... SCHWARTZ
   Thresh                                   ... 2.500e-11
   Tcut                                     ... 2.500e-12
   Tpresel                                  ... 2.500e-12 
Coulomb Range Separation                    ... NOT USED
Exchange Range Separation                   ... NOT USED
Multipole approximations                    ... NOT USED
Finite Nucleus Model                        ... NOT USED
CABS basis                                  ... NOT available
Auxiliary Coulomb fitting basis             ... AVAILABLE
   # of basis functions in Aux-J            ...    535
   # of shells in Aux-J                     ...    181
   Maximum angular momentum in Aux-J        ...      4
Auxiliary J/K fitting basis                 ... NOT available
Auxiliary Correlation fitting basis         ... NOT available
Auxiliary 'external' fitting basis          ... NOT available

Checking pre-screening integrals            ... done (  0.0 sec) Dimension = 84
   => SHARK Basis and OBASIS are compatible. Storing Pre-screening
Shell pair information
Shell pair cut-off parameter TPreSel        ...   2.5e-12
Total number of shell pairs                 ...      3570
Shell pairs after pre-screening             ...      3151
Total number of primitive shell pairs       ...     14032
Primitive shell pairs kept                  ...      8402
          la=0 lb=0:    955 shell pairs
          la=1 lb=0:   1179 shell pairs
          la=1 lb=1:    383 shell pairs
          la=2 lb=0:    361 shell pairs
          la=2 lb=1:    231 shell pairs
          la=2 lb=2:     42 shell pairs

Checking whether 4 symmetric matrices of dimension 178 fit in memory
:Max Core in MB      =   4096.00
 MB in use           =      7.41
 MB left             =   4088.59
 MB needed           =      0.49
 Data fit in memory  = YES
Calculating RI/J V-Matrix + Cholesky decomp.... done (  0.0 sec)
Calculating Nuclear repulsion               ... done (  0.0 sec) ENN=    763.146416336993 Eh

Diagonalization of the overlap matrix:
Smallest eigenvalue                        ... 1.405e-03
Time for diagonalization                   ...    0.005 sec
Threshold for overlap eigenvalues          ... 1.000e-07
Number of eigenvalues below threshold      ... 0
Time for construction of square roots      ...    0.002 sec
Total time needed                          ...    0.008 sec

-------------------
DFT GRID GENERATION
-------------------

General Integration Accuracy     IntAcc      ... 4.388
Radial Grid Type                 RadialGrid  ... OptM3 with GC (2021)
Angular Grid (max. ang.)         AngularGrid ... 4 (Lebedev-302)
Angular grid pruning method      GridPruning ... 4 (adaptive)
Weight generation scheme         WeightScheme... mBecke (2022)
Basis function cutoff            BFCut       ... 1.0000e-11
Integration weight cutoff        WCut        ... 1.0000e-14
Partially contracted basis set               ... off
Rotationally invariant grid construction     ... off
Angular grids for H and He will be reduced by one unit

Total number of grid points                  ...    83746
Total number of batches                      ...     1317
Average number of points per batch           ...       63
Average number of grid points per atom       ...     4926

--------------------
COSX GRID GENERATION
--------------------

GRIDX 1
-------
General Integration Accuracy     IntAcc      ... 3.816
Radial Grid Type                 RadialGrid  ... OptM3 with GC (2021)
Angular Grid (max. ang.)         AngularGrid ... 1 (Lebedev-50)
Angular grid pruning method      GridPruning ... 4 (adaptive)
Weight generation scheme         WeightScheme... mBecke (2022)
Basis function cutoff            BFCut       ... 1.0000e-11
Integration weight cutoff        WCut        ... 1.0000e-14
Partially contracted basis set               ... on
Rotationally invariant grid construction     ... off
Angular grids for H and He will be reduced by one unit

Total number of grid points                  ...    13781
Total number of batches                      ...      118
Average number of points per batch           ...      116
Average number of grid points per atom       ...      811
UseSFitting                                  ... on

GRIDX 2
-------
General Integration Accuracy     IntAcc      ... 4.020
Radial Grid Type                 RadialGrid  ... OptM3 with GC (2021)
Angular Grid (max. ang.)         AngularGrid ... 2 (Lebedev-110)
Angular grid pruning method      GridPruning ... 4 (adaptive)
Weight generation scheme         WeightScheme... mBecke (2022)
Basis function cutoff            BFCut       ... 1.0000e-11
Integration weight cutoff        WCut        ... 1.0000e-14
Partially contracted basis set               ... on
Rotationally invariant grid construction     ... off
Angular grids for H and He will be reduced by one unit

Total number of grid points                  ...    22719
Total number of batches                      ...      187
Average number of points per batch           ...      121
Average number of grid points per atom       ...     1336
UseSFitting                                  ... on

GRIDX 3
-------
General Integration Accuracy     IntAcc      ... 4.338
Radial Grid Type                 RadialGrid  ... OptM3 with GC (2021)
Angular Grid (max. ang.)         AngularGrid ... 3 (Lebedev-194)
Angular grid pruning method      GridPruning ... 4 (adaptive)
Weight generation scheme         WeightScheme... mBecke (2022)
Basis function cutoff            BFCut       ... 1.0000e-11
Integration weight cutoff        WCut        ... 1.0000e-14
Partially contracted basis set               ... on
Rotationally invariant grid construction     ... off
Angular grids for H and He will be reduced by one unit

Total number of grid points                  ...    51555
Total number of batches                      ...      411
Average number of points per batch           ...      125
Average number of grid points per atom       ...     3033
UseSFitting                                  ... on
Grids setup in   1.2 sec
Initializing property integral containers    ... done (  0.0 sec)

SHARK setup successfully completed in   1.3 seconds

Maximum memory used throughout the entire STARTUP-calculation: 24.0 MB


           ************************************************************
           *        Program running with 6 parallel MPI-processes     *
           *              working on a common directory               *
           ************************************************************
-------------------------------------------------------------------------------
                                 ORCA GUESS
                   Start orbitals & Density for SCF / CASSCF
-------------------------------------------------------------------------------

------------
SCF SETTINGS
------------
Hamiltonian:
 Density Functional     Method          .... DFT(GTOs)
 Exchange Functional    Exchange        .... B88
   X-Alpha parameter    XAlpha          ....  0.666667
   Becke's b parameter  XBeta           ....  0.004200
 Correlation Functional Correlation     .... LYP
 LDA part of GGA corr.  LDAOpt          .... VWN-5
 Gradients option       PostSCFGGA      .... off
 Hybrid DFT is turned on
   Fraction HF Exchange ScalHFX         ....  0.200000
   Scaling of DF-GGA-X  ScalDFX         ....  0.720000
   Scaling of DF-GGA-C  ScalDFC         ....  0.810000
   Scaling of DF-LDA-C  ScalLDAC        ....  1.000000
   Perturbative correction              ....  0.000000
   NL short-range parameter             ....  4.800000
 RI-approximation to the Coulomb term is turned on
   Number of AuxJ basis functions       .... 535
   RIJ-COSX (HFX calculated with COS-X)).... on


General Settings:
 Integral files         IntName         .... orca
 Hartree-Fock type      HFTyp           .... RHF
 Total Charge           Charge          ....    0
 Multiplicity           Mult            ....    1
 Number of Electrons    NEL             ....   98
 Basis Dimension        Dim             ....  178
 Nuclear Repulsion      ENuc            ....    763.1464163370 Eh

Convergence Acceleration:
 AO-DIIS                CNVDIIS         .... on
   Start iteration      DIISMaxIt       ....    12
   Startup error        DIISStart       ....  0.200000
   # of expansion vecs  DIISMaxEq       ....     5
   Bias factor          DIISBfac        ....   1.050
   Max. coefficient     DIISMaxC        ....  10.000
 MO-DIIS                CNVKDIIS        .... off
 Trust-Rad. Augm. Hess. CNVTRAH         .... auto
   Auto Start mean grad. ratio tolernc. ....  1.125000
   Auto Start start iteration           ....    50
   Auto Start num. interpolation iter.  ....    10
   Max. Number of Micro iterations      ....    24
   Max. Number of Macro iterations      .... Maxiter - #DIIS iter
   Number of Davidson start vectors     ....     2
   Converg. threshold    (grad. norm)   ....   1.000e-05
   Grad. Scal. Fac. for Micro threshold ....   0.100
   Minimum threshold for Micro iter.    ....   1.000e-02
   NR start threshold (gradient norm)   ....   1.000e-04
   Initial trust radius                 ....   0.400
   Minimum AH scaling param. (alpha)    ....   1.000
   Maximum AH scaling param. (alpha)    .... 1000.000
   Quad. conv. algorithm                .... NR
   White noise on init. David. guess    .... on
   Maximum white noise                  ....   0.010
   Pseudo random numbers                .... off
   Inactive MOs                         .... canonical
   Orbital update algorithm             .... Taylor
   Preconditioner                       .... Diag
   Full preconditioner red. dimension   ....   250
 SOSCF                 CNVSOSCF           .... on
   Start iteration     SOSCFMaxIt         ....   150
   Startup grad/error  SOSCFStart         ....  0.003300
   Hessian update      SOSCFHessUp        .... L-BFGS
   Autom. constraints  SOSCFAutoConstrain .... off
 Level Shifting         CNVShift        .... on
   Level shift para.    LevelShift      ....    0.2500
   Turn off err/grad.   ShiftErr        ....    0.0010
 Zerner damping         CNVZerner       .... off
 Static damping         CNVDamp         .... on
   Fraction old density DampFac         ....    0.7000
   Max. Damping (<1)    DampMax         ....    0.9800
   Min. Damping (>=0)   DampMin         ....    0.0000
   Turn off err/grad.   DampErr         ....    0.1000

SCF Procedure:
 Maximum # iterations   MaxIter         ....   125
 SCF integral mode      SCFMode         .... Direct
   Integral package                     .... SHARK and LIBINT hybrid scheme
 Reset frequency        DirectResetFreq ....    20
 Integral Threshold     Thresh          ....  2.500e-11 Eh
 Primitive CutOff       TCut            ....  2.500e-12 Eh

Convergence Tolerance:
 Convergence Check Mode ConvCheckMode   .... Total+1el-Energy
 Convergence forced     ConvForced      .... 0
 Energy Change          TolE            ....  1.000e-08 Eh
 1-El. energy change                    ....  1.000e-05 Eh
 Orbital Gradient       TolG            ....  1.000e-05
 Orbital Rotation angle TolX            ....  1.000e-05
 DIIS Error             TolErr          ....  5.000e-07

------------------------------
INITIAL GUESS: MODEL POTENTIAL
------------------------------
Loading Hartree-Fock densities                     ... done
Calculating cut-offs                               ... done
Initializing the effective Hamiltonian             ... done
Setting up the integral package (SHARK)            ... done
Starting the Coulomb interaction                   ... done (   0.1 sec)
Making the grid                                    ... done (   0.2 sec)
Mapping shells                                     ... done
Starting the XC term evaluation                    ... done (   0.0 sec)
  promolecular density results
     # of electrons  =     97.994216327
     EX              =   -119.387279312
     EC              =     -3.710959050
     EX+EC           =   -123.098238362
Transforming the Hamiltonian                       ... done (   0.0 sec)
Diagonalizing the Hamiltonian                      ... done (   0.0 sec)
Back transforming the eigenvectors                 ... done (   0.0 sec)
Now organizing SCF variables                       ... done
                      ------------------
                      INITIAL GUESS DONE (   0.3 sec)
                      ------------------
             **** ENERGY FILE WAS UPDATED (orca.en.tmp) ****
Finished Guess after   0.4 sec
Maximum memory used throughout the entire GUESS-calculation: 10.3 MB


           ************************************************************
           *        Program running with 6 parallel MPI-processes     *
           *              working on a common directory               *
           ************************************************************

-------------------------------------------------------------------------------------------
                                      ORCA LEAN-SCF
                              memory conserving SCF solver
-------------------------------------------------------------------------------------------

----------------------------------------D-I-I-S--------------------------------------------
Iteration    Energy (Eh)           Delta-E    RMSDP     MaxDP     DIISErr   Damp  Time(sec)
-------------------------------------------------------------------------------------------
               ***  Starting incremental Fock matrix formation  ***
    1    -1624.8355178985339080     0.00e+00  1.09e-02  1.72e-01  2.81e-01  0.700   1.4
    2    -1624.9948726993693526    -1.59e-01  6.60e-03  7.41e-02  8.16e-02  0.700   0.9
                               ***Turning on AO-DIIS***
    3    -1625.0432477335066324    -4.84e-02  2.80e-03  2.67e-02  3.11e-02  0.700   0.9
    4    -1625.0776891706022980    -3.44e-02  4.47e-03  4.59e-02  1.67e-02  0.000   0.8
    5    -1625.1557602169041274    -7.81e-02  1.21e-03  1.39e-02  7.91e-03  0.000   0.9
    6    -1625.1564603096157953    -7.00e-04  4.02e-04  3.98e-03  3.99e-03  0.000   0.8
                              *** Initializing SOSCF ***
---------------------------------------S-O-S-C-F--------------------------------------
Iteration    Energy (Eh)           Delta-E    RMSDP     MaxDP     MaxGrad    Time(sec)
--------------------------------------------------------------------------------------
    7    -1625.1565134606594256    -5.32e-05  1.47e-04  1.84e-03  2.96e-03     0.8
               *** Restarting incremental Fock matrix formation ***
    8    -1625.1565560875160372    -4.26e-05  1.26e-04  8.88e-04  2.31e-04     1.4
    9    -1625.1565565168921239    -4.29e-07  7.14e-05  5.50e-04  2.26e-04     1.2
   10    -1625.1565579843259002    -1.47e-06  5.32e-05  4.95e-04  1.13e-04     1.0
   11    -1625.1565579367493228     4.76e-08  3.44e-05  3.83e-04  1.18e-04     0.9
   12    -1625.1565584068189310    -4.70e-07  1.58e-05  1.30e-04  2.48e-05     0.9
   13    -1625.1565584178497375    -1.10e-08  7.77e-06  6.76e-05  2.20e-05     0.9
   14    -1625.1565584477425546    -2.99e-08  5.09e-06  6.00e-05  7.07e-06     0.8
   15    -1625.1565584482796112    -5.37e-10  2.54e-06  3.20e-05  8.01e-06     0.7
                 **** Energy Check signals convergence ****

               *****************************************************
               *                     SUCCESS                       *
               *           SCF CONVERGED AFTER  15 CYCLES          *
               *****************************************************

Recomputing exchange energy using gridx3       ... done (    2.177 sec)
Old exchange energy                            :    -23.977123750 Eh
New exchange energy                            :    -23.977098480 Eh
Exchange energy change after final integration :      0.000025270 Eh
Total energy after final integration           :  -1625.156533181 Eh
             **** ENERGY FILE WAS UPDATED (orca.en.tmp) ****

----------------
TOTAL SCF ENERGY
----------------

Total Energy       :      -1625.15653318105183 Eh          -44222.75751 eV

Components:
Nuclear Repulsion  :        763.14641633699250 Eh           20766.26973 eV
Electronic Energy  :      -2388.30297478830062 Eh          -64989.02792 eV
One Electron Energy:      -3756.93012308549805 Eh         -102231.26599 eV
Two Electron Energy:       1368.62714829719744 Eh           37242.23806 eV

Virial components:
Potential Energy   :      -3244.86751778194503 Eh          -88297.33411 eV
Kinetic Energy     :       1619.71098460089320 Eh           44074.57660 eV
Virial Ratio       :          2.00336204954583

DFT components:
N(Alpha)           :       48.999951073212 electrons
N(Beta)            :       48.999951073212 electrons
N(Total)           :       97.999902146424 electrons
E(X)               :      -95.290170256438 Eh       
E(C)               :       -4.351426058163 Eh       
E(XC)              :      -99.641596314601 Eh       

---------------
SCF CONVERGENCE
---------------

  Last Energy change         ...    5.3706e-10  Tolerance :   1.0000e-08
  Last MAX-Density change    ...    3.1976e-05  Tolerance :   1.0000e-07
  Last RMS-Density change    ...    2.5370e-06  Tolerance :   5.0000e-09
  Last DIIS Error            ...    2.9587e-03  Tolerance :   5.0000e-07
  Last Orbital Gradient      ...    8.0115e-06  Tolerance :   1.0000e-05
  Last Orbital Rotation      ...    1.5613e-05  Tolerance :   1.0000e-05


----------------
ORBITAL ENERGIES
----------------

  NO   OCC          E(Eh)            E(eV) 
   0   2.0000    -101.476220     -2761.3083 
   1   2.0000    -101.428554     -2760.0113 
   2   2.0000     -89.051548     -2423.2158 
   3   2.0000     -19.222321      -523.0660 
   4   2.0000     -19.181341      -521.9508 
   5   2.0000     -10.287119      -279.9267 
   6   2.0000     -10.249316      -278.8981 
   7   2.0000     -10.234124      -278.4847 
   8   2.0000     -10.216740      -278.0116 
   9   2.0000      -9.430240      -256.6099 
  10   2.0000      -9.381031      -255.2708 
  11   2.0000      -8.127162      -221.1513 
  12   2.0000      -7.198214      -195.8734 
  13   2.0000      -7.190075      -195.6519 
  14   2.0000      -7.189852      -195.6458 
  15   2.0000      -7.145197      -194.4307 
  16   2.0000      -7.144317      -194.4068 
  17   2.0000      -7.141624      -194.3335 
  18   2.0000      -6.096121      -165.8839 
  19   2.0000      -6.094279      -165.8338 
  20   2.0000      -6.087321      -165.6444 
  21   2.0000      -1.117329       -30.4041 
  22   2.0000      -1.063708       -28.9450 
  23   2.0000      -0.849522       -23.1167 
  24   2.0000      -0.803754       -21.8713 
  25   2.0000      -0.768413       -20.9096 
  26   2.0000      -0.736868       -20.0512 
  27   2.0000      -0.697782       -18.9876 
  28   2.0000      -0.680710       -18.5231 
  29   2.0000      -0.595371       -16.2009 
  30   2.0000      -0.557263       -15.1639 
  31   2.0000      -0.541852       -14.7445 
  32   2.0000      -0.518010       -14.0958 
  33   2.0000      -0.478111       -13.0101 
  34   2.0000      -0.472759       -12.8644 
  35   2.0000      -0.451240       -12.2789 
  36   2.0000      -0.440849       -11.9961 
  37   2.0000      -0.438079       -11.9207 
  38   2.0000      -0.411119       -11.1871 
  39   2.0000      -0.408781       -11.1235 
  40   2.0000      -0.379651       -10.3308 
  41   2.0000      -0.360556        -9.8112 
  42   2.0000      -0.317071        -8.6279 
  43   2.0000      -0.310451        -8.4478 
  44   2.0000      -0.300600        -8.1797 
  45   2.0000      -0.294160        -8.0045 
  46   2.0000      -0.266411        -7.2494 
  47   2.0000      -0.260263        -7.0821 
  48   2.0000      -0.257983        -7.0201 
  49   0.0000      -0.081113        -2.2072 
  50   0.0000      -0.078740        -2.1426 
  51   0.0000      -0.061504        -1.6736 
  52   0.0000       0.038398         1.0449 
  53   0.0000       0.049916         1.3583 
  54   0.0000       0.062115         1.6902 
  55   0.0000       0.082848         2.2544 
  56   0.0000       0.092492         2.5168 
  57   0.0000       0.100108         2.7241 
  58   0.0000       0.118589         3.2270 
  59   0.0000       0.127197         3.4612 
*Only the first 10 virtual orbitals were printed.

                    ********************************
                    * MULLIKEN POPULATION ANALYSIS *
                    ********************************

-----------------------
MULLIKEN ATOMIC CHARGES
-----------------------
   0 C :    0.097043
   1 C :   -0.188510
   2 C :   -0.092702
   3 C :    0.255968
   4 O :   -0.472757
   5 Cl:   -0.419764
   6 S :    0.838914
   7 O :   -0.381923
   8 Cl:   -0.268862
   9 H :    0.048500
  10 H :    0.042163
  11 H :    0.023358
  12 H :    0.117473
  13 H :    0.031751
  14 H :    0.057798
  15 H :    0.081444
  16 H :    0.230105
Sum of atomic charges:    0.0000000

--------------------------------
MULLIKEN REDUCED ORBITAL CHARGES
--------------------------------
  0 C s       :     2.936252  s :     2.936252
      pz      :     0.961265  p :     2.938308
      px      :     0.991334
      py      :     0.985709
      dz2     :     0.005179  d :     0.028397
      dxz     :     0.008476
      dyz     :     0.005072
      dx2y2   :     0.002142
      dxy     :     0.007527

  1 C s       :     3.175225  s :     3.175225
      pz      :     0.954663  p :     2.976155
      px      :     1.024581
      py      :     0.996912
      dz2     :     0.012163  d :     0.037129
      dxz     :     0.008721
      dyz     :     0.009686
      dx2y2   :     0.002165
      dxy     :     0.004394

  2 C s       :     3.233639  s :     3.233639
      pz      :     0.969152  p :     2.824198
      px      :     0.897115
      py      :     0.957932
      dz2     :     0.008521  d :     0.034865
      dxz     :     0.008297
      dyz     :     0.011372
      dx2y2   :     0.002815
      dxy     :     0.003860

  3 C s       :     2.940528  s :     2.940528
      pz      :     0.967813  p :     2.747024
      px      :     1.035888
      py      :     0.743323
      dz2     :     0.008401  d :     0.056480
      dxz     :     0.011320
      dyz     :     0.015281
      dx2y2   :     0.012207
      dxy     :     0.009271

  4 O s       :     3.826514  s :     3.826514
      pz      :     1.612507  p :     4.633221
      px      :     1.490607
      py      :     1.530108
      dz2     :     0.002312  d :     0.013021
      dxz     :     0.001279
      dyz     :     0.003030
      dx2y2   :     0.004313
      dxy     :     0.002087

  5 Cls       :     5.969125  s :     5.969125
      pz      :     3.744884  p :    11.443212
      px      :     3.832493
      py      :     3.865835
      dz2     :     0.002502  d :     0.007427
      dxz     :     0.001331
      dyz     :     0.001020
      dx2y2   :     0.000589
      dxy     :     0.001984

  6 S s       :     5.841891  s :     5.841891
      pz      :     3.129009  p :     8.989205
      px      :     2.800355
      py      :     3.059841
      dz2     :     0.059962  d :     0.329990
      dxz     :     0.039678
      dyz     :     0.071171
      dx2y2   :     0.098129
      dxy     :     0.061050

  7 O s       :     3.877651  s :     3.877651
      pz      :     1.638820  p :     4.485594
      px      :     1.472037
      py      :     1.374737
      dz2     :     0.002267  d :     0.018677
      dxz     :     0.001908
      dyz     :     0.003630
      dx2y2   :     0.005127
      dxy     :     0.005746

  8 Cls       :     5.971260  s :     5.971260
      pz      :     3.497497  p :    11.282699
      px      :     3.926754
      py      :     3.858448
      dz2     :     0.006519  d :     0.014902
      dxz     :     0.002251
      dyz     :     0.004942
      dx2y2   :     0.000543
      dxy     :     0.000648

  9 H s       :     0.927922  s :     0.927922
      pz      :     0.008985  p :     0.023578
      px      :     0.009151
      py      :     0.005442

 10 H s       :     0.934142  s :     0.934142
      pz      :     0.006163  p :     0.023695
      px      :     0.008345
      py      :     0.009187

 11 H s       :     0.953495  s :     0.953495
      pz      :     0.004364  p :     0.023147
      px      :     0.007745
      py      :     0.011038

 12 H s       :     0.839819  s :     0.839819
      pz      :     0.009585  p :     0.042708
      px      :     0.022985
      py      :     0.010138

 13 H s       :     0.945550  s :     0.945550
      pz      :     0.004011  p :     0.022699
      px      :     0.007098
      py      :     0.011590

 14 H s       :     0.921059  s :     0.921059
      pz      :     0.010105  p :     0.021143
      px      :     0.008534
      py      :     0.002503

 15 H s       :     0.894951  s :     0.894951
      pz      :     0.005509  p :     0.023605
      px      :     0.013401
      py      :     0.004695

 16 H s       :     0.712714  s :     0.712714
      pz      :     0.027066  p :     0.057180
      px      :     0.011027
      py      :     0.019087



                     *******************************
                     * LOEWDIN POPULATION ANALYSIS *
                     *******************************

----------------------
LOEWDIN ATOMIC CHARGES
----------------------
   0 C :   -0.042297
   1 C :   -0.066725
   2 C :    0.010019
   3 C :    0.076788
   4 O :   -0.240461
   5 Cl:   -0.380644
   6 S :    0.890457
   7 O :   -0.417295
   8 Cl:   -0.264198
   9 H :    0.046325
  10 H :    0.046105
  11 H :    0.033837
  12 H :    0.059546
  13 H :    0.038745
  14 H :    0.037261
  15 H :    0.036293
  16 H :    0.136244

-------------------------------
LOEWDIN REDUCED ORBITAL CHARGES
-------------------------------
  0 C s       :     2.832118  s :     2.832118
      pz      :     1.022753  p :     3.136878
      px      :     1.054806
      py      :     1.059318
      dz2     :     0.013150  d :     0.073302
      dxz     :     0.022128
      dyz     :     0.013404
      dx2y2   :     0.004794
      dxy     :     0.019826

  1 C s       :     2.887938  s :     2.887938
      pz      :     1.072419  p :     3.088521
      px      :     1.008991
      py      :     1.007111
      dz2     :     0.030728  d :     0.090266
      dxz     :     0.020217
      dyz     :     0.024527
      dx2y2   :     0.005391
      dxy     :     0.009403

  2 C s       :     2.891728  s :     2.891728
      pz      :     1.067096  p :     3.009857
      px      :     0.938936
      py      :     1.003825
      dz2     :     0.024071  d :     0.088396
      dxz     :     0.018945
      dyz     :     0.031250
      dx2y2   :     0.005100
      dxy     :     0.009031

  3 C s       :     2.850761  s :     2.850761
      pz      :     1.009495  p :     2.939755
      px      :     1.081332
      py      :     0.848928
      dz2     :     0.016572  d :     0.132696
      dxz     :     0.030379
      dyz     :     0.036703
      dx2y2   :     0.026779
      dxy     :     0.022262

  4 O s       :     3.568815  s :     3.568815
      pz      :     1.586392  p :     4.648364
      px      :     1.507480
      py      :     1.554493
      dz2     :     0.004620  d :     0.023282
      dxz     :     0.002749
      dyz     :     0.004913
      dx2y2   :     0.007058
      dxy     :     0.003942

  5 Cls       :     5.928313  s :     5.928313
      pz      :     3.744846  p :    11.443665
      px      :     3.825506
      py      :     3.873314
      dz2     :     0.003204  d :     0.008666
      dxz     :     0.001304
      dyz     :     0.001235
      dx2y2   :     0.000601
      dxy     :     0.002322

  6 S s       :     5.655636  s :     5.655636
      pz      :     3.101640  p :     9.023390
      px      :     2.808513
      py      :     3.113237
      dz2     :     0.081321  d :     0.430516
      dxz     :     0.048055
      dyz     :     0.088875
      dx2y2   :     0.128126
      dxy     :     0.084140

  7 O s       :     3.707608  s :     3.707608
      pz      :     1.662654  p :     4.679423
      px      :     1.523816
      py      :     1.492953
      dz2     :     0.004054  d :     0.030264
      dxz     :     0.002649
      dyz     :     0.005389
      dx2y2   :     0.007077
      dxy     :     0.011095

  8 Cls       :     5.942838  s :     5.942838
      pz      :     3.513570  p :    11.303181
      px      :     3.927339
      py      :     3.862272
      dz2     :     0.008319  d :     0.018178
      dxz     :     0.002623
      dyz     :     0.005899
      dx2y2   :     0.000620
      dxy     :     0.000718

  9 H s       :     0.888716  s :     0.888716
      pz      :     0.025695  p :     0.064959
      px      :     0.025905
      py      :     0.013359

 10 H s       :     0.889525  s :     0.889525
      pz      :     0.016726  p :     0.064370
      px      :     0.021904
      py      :     0.025740

 11 H s       :     0.901887  s :     0.901887
      pz      :     0.012456  p :     0.064275
      px      :     0.020971
      py      :     0.030848

 12 H s       :     0.793886  s :     0.793886
      pz      :     0.027074  p :     0.146568
      px      :     0.080640
      py      :     0.038854

 13 H s       :     0.892338  s :     0.892338
      pz      :     0.012874  p :     0.068917
      px      :     0.021643
      py      :     0.034400

 14 H s       :     0.896812  s :     0.896812
      pz      :     0.030896  p :     0.065927
      px      :     0.025823
      py      :     0.009207

 15 H s       :     0.891343  s :     0.891343
      pz      :     0.016700  p :     0.072364
      px      :     0.040711
      py      :     0.014954

 16 H s       :     0.676639  s :     0.676639
      pz      :     0.090895  p :     0.187117
      px      :     0.032675
      py      :     0.063547



                      *****************************
                      * MAYER POPULATION ANALYSIS *
                      *****************************

  NA   - Mulliken gross atomic population
  ZA   - Total nuclear charge
  QA   - Mulliken gross atomic charge
  VA   - Mayer's total valence
  BVA  - Mayer's bonded valence
  FA   - Mayer's free valence

  ATOM       NA         ZA         QA         VA         BVA        FA
  0 C      5.9030     6.0000     0.0970     3.9277     3.9277     0.0000
  1 C      6.1885     6.0000    -0.1885     3.8944     3.8944     0.0000
  2 C      6.0927     6.0000    -0.0927     3.9769     3.9769     0.0000
  3 C      5.7440     6.0000     0.2560     3.8004     3.8004    -0.0000
  4 O      8.4728     8.0000    -0.4728     2.0765     2.0765     0.0000
  5 Cl    17.4198    17.0000    -0.4198     0.9934     0.9934     0.0000
  6 S     15.1611    16.0000     0.8389     3.4951     3.4951     0.0000
  7 O      8.3819     8.0000    -0.3819     2.1009     2.1009     0.0000
  8 Cl    17.2689    17.0000    -0.2689     1.0376     1.0376    -0.0000
  9 H      0.9515     1.0000     0.0485     0.9925     0.9925     0.0000
 10 H      0.9578     1.0000     0.0422     0.9908     0.9908     0.0000
 11 H      0.9766     1.0000     0.0234     0.9944     0.9944     0.0000
 12 H      0.8825     1.0000     0.1175     1.1014     1.1014     0.0000
 13 H      0.9682     1.0000     0.0318     0.9958     0.9958    -0.0000
 14 H      0.9422     1.0000     0.0578     0.9858     0.9858     0.0000
 15 H      0.9186     1.0000     0.0814     1.0230     1.0230    -0.0000
 16 H      0.7699     1.0000     0.2301     1.0298     1.0298     0.0000

  Mayer bond orders larger than 0.100000
B(  0-C ,  1-C ) :   1.0620 B(  0-C ,  9-H ) :   0.9435 B(  0-C , 10-H ) :   0.9518 
B(  0-C , 11-H ) :   0.9668 B(  1-C ,  2-C ) :   1.7896 B(  1-C , 12-H ) :   0.5327 
B(  1-C , 16-H ) :   0.4020 B(  2-C ,  3-C ) :   1.0309 B(  2-C , 13-H ) :   0.9690 
B(  3-C ,  4-O ) :   0.8816 B(  3-C , 14-H ) :   0.9426 B(  3-C , 15-H ) :   0.9063 
B(  4-O ,  6-S ) :   0.6233 B(  4-O , 16-H ) :   0.3824 B(  5-Cl,  6-S ) :   0.3194 
B(  5-Cl, 12-H ) :   0.4034 B(  6-S ,  7-O ) :   1.7480 B(  6-S ,  8-Cl) :   0.7524 
B(  7-O ,  8-Cl) :   0.1342 B( 12-H , 16-H ) :   0.1076 

-------
TIMINGS
-------

Total SCF time: 0 days 0 hours 0 min 17 sec 

Total time                  ....      17.540 sec
Sum of individual times     ....      16.772 sec  ( 95.6%)

SCF preparation             ....       0.211 sec  (  1.2%)
Fock matrix formation       ....      15.979 sec  ( 91.1%)
  Startup                   ....       0.007 sec  (  0.0% of F)
  Split-RI-J                ....       1.567 sec  (  9.8% of F)
  Chain of spheres X        ....      12.294 sec  ( 76.9% of F)
  XC integration            ....       2.603 sec  ( 16.3% of F)
    XC Preparation          ....       0.000 sec  (  0.0% of XC)
    Basis function eval.    ....       0.845 sec  ( 32.5% of XC)
    Density eval.           ....       0.507 sec  ( 19.5% of XC)
    XC-Functional eval.     ....       0.147 sec  (  5.7% of XC)
    XC-Potential eval.      ....       0.523 sec  ( 20.1% of XC)
Diagonalization             ....       0.000 sec  (  0.0%)
Density matrix formation    ....       0.059 sec  (  0.3%)
Total Energy calculation    ....       0.036 sec  (  0.2%)
Population analysis         ....       0.028 sec  (  0.2%)
Orbital Transformation      ....       0.031 sec  (  0.2%)
Orbital Orthonormalization  ....       0.000 sec  (  0.0%)
DIIS solution               ....       0.168 sec  (  1.0%)
SOSCF solution              ....       0.260 sec  (  1.5%)
Finished LeanSCF after  17.6 sec

Maximum memory used throughout the entire LEANSCF-calculation: 15.6 MB


-------------------------------------------------------------------------------
                          DFT DISPERSION CORRECTION                            
                                                                               
                              DFTD3 V3.1  Rev 1                                
                          USING Becke-Johnson damping                          
-------------------------------------------------------------------------------
The B3LYP functional is recognized
Active option DFTDOPT                   ...         4   

molecular C6(AA) [au] = 4733.697606 


            DFT-D V3
 parameters
 s6 scaling factor         :     1.0000 
 a1 scaling factor         :     0.3981 
 s8 scaling factor         :     1.9889 
 a2 scaling factor         :     4.4211 
 ad hoc parameters k1-k3   :    16.0000     1.3333    -4.0000 

 Edisp/kcal,au: -21.636033945312  -0.034479211122 
 E6   /kcal   :  -9.706742792 
 E8   /kcal   : -11.929291153 
 % E8         :  55.136219434 

-------------------------   ----------------
Dispersion correction           -0.034479211
-------------------------   ----------------


-------------------------   --------------------
FINAL SINGLE POINT ENERGY     -1625.191012392174
-------------------------   --------------------



           ************************************************************
           *        Program running with 6 parallel MPI-processes     *
           *              working on a common directory               *
           ************************************************************
------------------------------------------------------------------------------
                         ORCA SCF GRADIENT CALCULATION
------------------------------------------------------------------------------

Nuc. rep. gradient        (SHARK) ... done (  0.0 sec)
HCore & Overlap gradient  (SHARK) ... done (  0.1 sec)
Split-RIJ-J gradient      (SHARK) ... done (  0.4 sec)
done (  6.9 sec)
XC gradient                       ... done (  1.2 sec)
Dispersion correction             ... done (  0.0 sec)

-------------------
DISPERSION GRADIENT
-------------------

   1   C   :    0.000372556    0.000292895   -0.000426066
   2   C   :   -0.000449623   -0.001628120    0.000257972
   3   C   :    0.000540315    0.000543791    0.000315039
   4   C   :    0.000437305    0.000390855    0.000258967
   5   O   :    0.000293671   -0.000033442   -0.000045267
   6   Cl  :   -0.000964589   -0.000622761   -0.001234864
   7   S   :   -0.001048753   -0.000916416    0.000394308
   8   O   :   -0.000721256    0.000111418    0.000250612
   9   Cl  :   -0.000352667   -0.000944825    0.000842829
  10   H   :    0.000108815    0.000169821   -0.000258958
  11   H   :    0.000203844    0.000032516   -0.000227236
  12   H   :    0.000136007    0.000130613   -0.000168280
  13   H   :    0.000469604    0.000325122   -0.000138502
  14   H   :    0.000142246    0.000248459    0.000139028
  15   H   :    0.000302650    0.000150479    0.000289224
  16   H   :    0.000012926    0.000290846    0.000272754
  17   H   :    0.000516948    0.001458749   -0.000521559

Difference to translation invariance:
           :    0.0000000000    0.0000000000   -0.0000000000

Difference to rotation invariance:
           :    0.0000000000    0.0000000000    0.0000000000

Norm of the Dispersion gradient    ...    0.0039383998
RMS gradient                       ...    0.0005514863
MAX gradient                       ...    0.0016281198

------------------
CARTESIAN GRADIENT
------------------

   1   C   :   -0.000108135   -0.000064262    0.000051334
   2   C   :    0.000066484   -0.000226260   -0.000167748
   3   C   :   -0.000069067    0.000050565    0.000041681
   4   C   :    0.000073302   -0.000057060    0.000102348
   5   O   :   -0.000298901    0.000195221   -0.000211460
   6   Cl  :    0.000024359    0.000062450    0.000065850
   7   S   :    0.000024516    0.000055227    0.000141117
   8   O   :    0.000005928   -0.000017685   -0.000131550
   9   Cl  :    0.000137524   -0.000085251    0.000024206
  10   H   :    0.000023033    0.000014448    0.000030443
  11   H   :    0.000067090   -0.000001849    0.000019924
  12   H   :   -0.000006570    0.000014258    0.000063634
  13   H   :    0.000027437   -0.000026767    0.000006954
  14   H   :   -0.000000176    0.000010655   -0.000029547
  15   H   :    0.000002006   -0.000019735    0.000037215
  16   H   :    0.000009285    0.000041857   -0.000038982
  17   H   :    0.000021884    0.000054187   -0.000005417

Difference to translation invariance:
           :   -0.0000000001    0.0000000002    0.0000000000

Difference to rotation invariance:
           :   -0.0000912660   -0.0000343824   -0.0000596447

Norm of the Cartesian gradient     ...    0.0006334908
RMS gradient                       ...    0.0000887064
MAX gradient                       ...    0.0002989007

-------
TIMINGS
-------

Total SCF gradient time     ....        8.671 sec

Densities                   ....       0.001 sec  (  0.0%)
One electron gradient       ....       0.068 sec  (  0.8%)
RI-J Coulomb gradient       ....       0.422 sec  (  4.9%)
COSX gradient               ....       6.896 sec  ( 79.5%)
XC gradient                 ....       1.234 sec  ( 14.2%)

Maximum memory used throughout the entire SCFGRAD-calculation: 30.3 MB


           ************************************************************
           *        Program running with 6 parallel MPI-processes     *
           *              working on a common directory               *
           ************************************************************

------------------------------------------------------------------------------
                              ORCA PROPERTY CALCULATIONS
------------------------------------------------------------------------------

GBWName                                 ... orca.gbw
Number of atoms                         ...     17
Number of basis functions               ...    178
Max core memory                         ...   4096 MB

Electric properties:
Dipole moment                           ... YES
Quadrupole moment                       ...  NO
Static polarizability (Dipole/Dipole)   ...  NO
Static polarizability (Dipole/Quad.)    ...  NO
Static polarizability (Quad./Quad.)     ...  NO
Static polarizability (Velocity)        ...  NO
Static hyperpolarizability              ...  NO

Atomic electric properties:
Dipole moment                           ...  NO
Quadrupole moment                       ...  NO
Static polarizability                   ...  NO

Choice of electric origin               ... Center of mass
Position of electric origin             ...    -1.863000    -1.790494     0.935037

General magnetic properties:
Magnetizability                         ...  NO

EPR properties:
g-Tensor (aka g-matrix)                 ...  NO
Zero-Field splitting spin-orbit         ...  NO
Zero-field splitting spin-spin          ...  NO
Hyperfine couplings                     ...  NO (   0 nuclei)
Quadrupole couplings                    ...  NO (   0 nuclei)
Contact density                         ...  NO (   0 nuclei)

NMR properties:
Chemical shifts                         ...  NO (   0 nuclei)
Spin-rotation constants                 ...  NO (   0 nuclei)
Spin-spin couplings                     ...  NO (   0 nuclei,    0 pairs)

Choice of magnetic origin               ... GIAO
Position of magnetic origin             ...     0.000000     0.000000     0.000000

Properties with geometric perturbations:
SCF Hessian                             ...  NO
IR spectrum                             ...  NO
VCD spectrum                            ...  NO
X-ray spectroscopy properties:
SCF XES/XAS/RIXS spectra                ...  NO

SCF SOC stabilization energy            ...  NO
Diagonal Born-Oppenheimer correction    ...  NO

-------------
DIPOLE MOMENT
-------------

Method             : SCF
Type of density    : Electron Density
Multiplicity       :   1
Irrep              :   0
Energy             : -1625.1565331810518273 Eh
Basis              : AO
                                X                 Y                 Z
Electronic contribution:    -12.523434187     -12.832218838       7.485356884
Nuclear contribution   :     14.384277881      14.060764434      -7.313109960
                        -----------------------------------------
Total Dipole Moment    :      1.860843694       1.228545596       0.172246924
                        -----------------------------------------
Magnitude (a.u.)       :      2.236455351
Magnitude (Debye)      :      5.684617738



--------------------
Rotational spectrum 
--------------------
 
Rotational constants in cm-1:             0.047227             0.020711             0.016056 
Rotational constants in MHz :          1415.825178           620.914753           481.333995 

Dipole components along the rotational axes: 
x,y,z [a.u.] :    -1.247926     1.852883    -0.106007 
x,y,z [Debye]:    -3.171976     4.709655    -0.269447 

 

Dipole moment calculation done in   0.0 sec 

Maximum memory used throughout the entire PROP-calculation: 8.6 MB

--------------------------------
SUGGESTED CITATIONS FOR THIS RUN
--------------------------------

Below you find a list of papers that are relevant to this ORCA run
We neither can nor want to force you to cite these papers, but we appreciate if you do
You receive ORCA, which is the product of decades of hard work by many enthusiastic individuals, for free
The only thing we kindly ask in return is that you cite our papers,
We deeply appreciate it, if you show your appreciation for ORCA by not just citing the generic ORCA reference.

Please note that relegating all ORCA citations to the supporting information does *not* help us.
SI sections are not indexed - citations you put there will not count into any citation statistics
But we need these citations in order to attract the funding resources that allow us to do what we are doing

Therefore, if you are a happy ORCA user, please consider citing a few of the papers listed below in the main body of your paper

In addition to the list printed below, the program has created the file orca.bibtex that contains the list in bibtex format
You can import this file easily into all common literature databanks and citation aid programs


List of essential papers. We consider these as the minimum necessary citations

  1. Neese, F.
     Software update: the ORCA program system, version 6.0
     WIRES Comput. Molec. Sci. 2025 15(1), e70019
     doi.org/10.1002/wcms.7019

List of papers to cite with high priority. The work reported in these papers was absolutely
necessary for this run to complete.
Our perspective: the developers of density functionals and basis sets usually get cited in chemistry papers
Good! But without the algorithms to do something with them, the functionals or basis sets would not do anything.
Hence, in our opinion, the algorithm design and method developments papers are equally worthy of getting cited

  1. Neese, F.
     An improvement of the resolution of the identity approximation for the formation of the Coulomb matrix
     J. Comp. Chem. 2003 24(14), 1740-1747
     doi.org/10.1002/jcc.10318
  2. Neese, F.; Wennmohs, F.; Hansen, A.; Becker, U.
     Efficient, approximate and parallel Hartree-Fock and hybrid DFT calculations. A 'chain-of-spheres' algorithm for the Hartree-Fock exchange
     Chem. Phys. 2009 356(1-3), 98-109
     doi.org/10.1016/j.chemphys.2008.10.036
  3. Grimme, S.; Antony, J.; Ehrlich, S.; Krieg, H.
     A consistent and accurate ab initio parametrization of density functional dispersion correction (DFT-D) for the 94 elements H-Pu
     J. Chem. Phys. 2010 132 , 154104
     doi.org/10.1063/1.3382344
  4. Grimme, S.; Ehrlich, S.; Goerigk, L.
     Effect of the damping function in dispersion corrected density functional theory
     J. Comput. Chem. 2011 32(7), 1456-1465
     doi.org/10.1002/jcc.21759
  5. Helmich-Paris, B.; de Souza, B.; Neese, F.; Izsák, R.
     An improved chain of spheres for exchange algorithm
     J. Chem. Phys. 2021 155(10), 104109
     doi.org/10.1063/5.0058766
  6. Neese, F.
     The SHARK Integral Generation and Digestion System
     J. Comp. Chem. 2022 44(3), 381
     doi.org/10.1002/jcc.26942

List of suggested additional citations. These are papers that are important in the 'surrounding' of 
of this run, or papers that preceded the highly important papers. If you like your results we are grateful for a citation.

  1. Izsak, R.; Neese, F.
     An overlap fitted chain of spheres exchange method
     J. Chem. Phys. 2011 135 , 144105
     doi.org/10.1063/1.3646921
  2. Izsak, R.; Hansen, A.; Neese, F.
     The resolution of identity and chain of spheres approximations for the LPNO-CCSD singles Fock term
     Molec. Phys. 2012 110 , 2413-2417
     doi.org/10.1080/00268976.2012.687466
  3. Neese, F.
     The ORCA program system
     WIRES Comput. Molec. Sci. 2012 2(1), 73-78
     doi.org/10.1002/wcms.81
  4. Izsak, R.; Neese, F.; Klopper, W.
     Robust fitting techniques in the chain of spheres approximation to the Fock exchange: The role of the complementary space
     J. Chem. Phys. 2013 139 , 
     doi.org/10.1063/1.4819264
  5. Neese, F.
     Software update: the ORCA program system, version 4.0
     WIRES Comput. Molec. Sci. 2018 8(1), 1-6
     doi.org/10.1002/wcms.1327
  6. Neese, F.; Wennmohs, F.; Becker, U.; Riplinger, C.
     The ORCA quantum chemistry program package
     J. Chem. Phys. 2020 152(22), 224108
     doi.org/10.1063/5.0004608
  7. Neese, F.
     Software update: The ORCA program system—Version 5.0
     WIRES Comput. Molec. Sci. 2022 12(1), e1606
     doi.org/10.1002/wcms.1606

List of optional additional citations

  1. Neese, F.
     Approximate second-order SCF convergence for spin unrestricted wavefunctions
     Chem. Phys. Lett. 2000 325(1-3), 93-98
     doi.org/10.1016/s0009-2614(00)00662-x

Timings for individual modules:

Sum of individual times          ...       30.059 sec (=   0.501 min)
Startup calculation              ...        1.774 sec (=   0.030 min)   5.9 %
SCF iterations                   ...       18.650 sec (=   0.311 min)  62.0 %
Property calculations            ...        0.488 sec (=   0.008 min)   1.6 %
SCF Gradient evaluation          ...        9.148 sec (=   0.152 min)  30.4 %
                             ****ORCA TERMINATED NORMALLY****
TOTAL RUN TIME: 0 days 0 hours 0 minutes 30 seconds 640 msec
