
                                 *****************
                                 * O   R   C   A *
                                 *****************

                                            #,                                       
                                            ###                                      
                                            ####                                     
                                            #####                                    
                                            ######                                   
                                           ########,                                 
                                     ,,################,,,,,                         
                               ,,#################################,,                 
                          ,,##########################################,,             
                       ,#########################################, ''#####,          
                    ,#############################################,,   '####,        
                  ,##################################################,,,,####,       
                ,###########''''           ''''###############################       
              ,#####''   ,,,,##########,,,,          '''####'''          '####       
            ,##' ,,,,###########################,,,                        '##       
           ' ,,###''''                  '''############,,,                           
         ,,##''                                '''############,,,,        ,,,,,,###''
      ,#''                                            '''#######################'''  
     '                                                          ''''####''''         
             ,#######,   #######,   ,#######,      ##                                
            ,#'     '#,  ##    ##  ,#'     '#,    #''#        ,####,    ,#,          
            ##       ##  ##   ,#'  ##            #'  '#       #'       ,# #          
            ##       ##  #######   ##           ,######,      #####,      #          
            '#,     ,#'  ##    ##  '#,     ,#' ,#      #,     #,   #      #          
             '#######'   ##     ##  '#######'  #'      '#     '####' #    #          



                #########################################################
                #                        -***-                          #
                #          Department of theory and spectroscopy        #
                #                                                       #
                #                      Frank Neese                      #
                #                                                       #
                #     Directorship, Architecture, Infrastructure        #
                #                    SHARK, DRIVERS                     #
                #        Core code/Algorithms in most modules           #
                #                                                       #
                #        Max Planck Institute fuer Kohlenforschung      #
                #                Kaiser Wilhelm Platz 1                 #
                #                 D-45470 Muelheim/Ruhr                 #
                #                      Germany                          #
                #                                                       #
                #                  All rights reserved                  #
                #                        -***-                          #
                #########################################################


                         Program Version 6.1.0  -  RELEASE   -
                                (GIT: $679e74b$)
                          ($2025-06-10 18:02:51 +0200$)


 With contributions from (in alphabetic order):
[Max-Planck-Institut fuer Kohlenforschung]                               
  Daniel Aravena         : Magnetic Suceptibility                        
  Michael Atanasov       : Ab Initio Ligand Field Theory (pilot matlab implementation)
  Alexander A. Auer      : GIAO ZORA, VPT2 properties, NMR spectrum      
  Ute Becker             : All parallelization in ORCA, NUMFREQ, NUMCALC 
  Giovanni Bistoni       : ED, misc. LED, open-shell LED, HFLD           
  Dmytro Bykov           : pre 5.0 version of the SCF Hessian            
  Marcos Casanova-Páez   : Triplet and SCS-CIS(D). UHF-(DLPNO)-IP/EA/STEOM-CCSD. UHF-CVS-IP/STEOM-CCSD   
  Vijay G. Chilkuri      : MRCI spin determinant printing, contributions to CSF-ICE 
  Pauline Colinet        : FMM embedding                                 
  Dipayan Datta          : RHF DLPNO-CCSD density                        
  Achintya Kumar Dutta   : EOM-CC, STEOM-CC                              
  Nicolas Foglia         : Exact transition moments, OPA infrastructure, MCD improvements    
  Dmitry Ganyushin       : Spin-Orbit,Spin-Spin,Magnetic field MRCI      
  Miquel Garcia-Rates    : C-PCM and meta-GGA Hessian, CCSD/C-PCM, Gaussian charge scheme 
  Tiago L. C. Gouveia    : GS-ROHF, GS-ROCIS                             
  Yang Guo               : DLPNO-NEVPT2, F12-NEVPT2, CIM, IAO-localization        
  Andreas Hansen         : Spin unrestricted coupled pair/coupled cluster methods 
  Ingolf Harden          : AUTO-CI MPn and infrastructure                
  Benjamin Helmich-Paris : MC-RPA, TRAH-(SCF,CASSCF), AVAS, COSX integrals, SCF dyn. polar., MC-PDFT, srDFT 
  Lee Huntington         : MR-EOM, pCC                                   
  Robert Izsak           : Overlap fitted RIJCOSX, COSX-SCS-MP3, EOM     
  Riya Kayal             : Wick's Theorem for AUTO-CI, AUTO-CI UHF-CCSDT 
  Emily Kempfer          : AUTO-CI RHF CISDT and CCSDT, approximate NEVPT4
  Christian Kollmar      : KDIIS, OOCD, Brueckner-CCSD(T), CCSD density, CASPT2, CASPT2-K, improved NEVPT2 
  Axel Koslowski         : Symmetry handling                             
  Simone Kossmann        : meta-GGA functionals, TD-DFT gradient, OOMP2, (MP2 Hessian; deprecated post 5.0) 
  Lucas Lang             : DCDCAS, Hyperfine gauge corrections, ICE-SOC+SSC
  Marvin Lechner         : AUTO-CI (C++ implementation), FIC-MRCC        
  Spencer Leger          : CASSCF response                               
  Dagmar Lenk            : GEPOL surface, SMD, ORCA-2-JSON               
  Dimitrios Liakos       : Extrapolation schemes; Compound Job, Property file
  Dimitrios Manganas     : Further ROCIS development; embedding schemes. LFT, Crystal Embedding 
  Dimitrios Pantazis     : SARC Basis sets                               
  Anastasios Papadopoulos: AUTO-CI, single reference methods and gradients 
  Taras Petrenko         : pre 6.0 DFT Hessian and TD-DFT gradient,  ECA, NRVS 
  Petra Pikulova         : Analytic Raman intensities                    
  Peter Pinski           : DLPNO-MP2, DLPNO-MP2 Gradient                 
  Shashank Vittal Rao    : ES-AILFT, MagRelax                            
  Christoph Reimann      : Effective Core Potentials                     
  Marius Retegan         : Local ZFS, SOC                                
  Christoph Riplinger    : Optimizer, TS searches, QM/MM, DLPNO-CCSD(T), (RO)-DLPNO pert. Triples 
  Michael Roemelt        : Original ROCIS implementation, recursive CI coupling coefficients
  Masaaki Saitow         : Open-shell DLPNO-CCSD energy and density      
  Barbara Sandhoefer     : DKH picture change effects                    
  Yorick L. A. Schmerwitz: GMF and freeze-and-release deltaSCF, NEB S-IDPP initial path                    
  Kantharuban Sivalingam : CASSCF convergence/infrastructure, NEVPT2, NEVPT3, NEVPT4(SD), FIC-MRCI and CEPA variants
  Bernardo de Souza      : ESD, SOC TD-DFT                               
  Georgi L. Stoychev     : AutoAux, RI-MP2 NMR, DLPNO-MP2 response, X2C  
  Van Anh Tran           : RI-MP2 g-tensors                              
  Willem Van den Heuvel  : Paramagnetic NMR                              
  Zikuan Wang            : NOTCH, Electric field optimization            
  Frank Wennmohs         : Technical directorship and infrastructure     
  Hang Xu                : AUTO-CI-Response properties                   
                                                                         
[FACCTs GmbH]                                                            
  Markus Bursch, Nicolas Foglia, Miquel Garcia-Rates, Ingolf Harden, Hagen Neugebauer, Anastasios Papadopoulos, 
  Christoph Riplinger, Bernardo de Souza, Georgi L. Stoychev                                                    
                                                                 
  APM, various basis sets, CI-OPT, improved COSX, DLPNO-Multilevel,           
  DOCKER, DRACO, updates on ESD, Fragmentator, GOAT, IRC, LR-CPCM, L-BFGS, MBIS, meta-GGA TD-DFT gradient, ML-optimized integration grids, 
  MM, NACMEs, nearIR, NEB, NEB-TS, NL-DFT gradient (VV10), 2- and 3-layer-ONIOM, interface openCOSMO-RS, QMMM,   
  Crystal-QMMM, RESP, rigid body optimization, SF, symmetry and pop. for TD-DFT, various functionals, SOLVATOR                                   
                                                                         
[Other institutions]                                                     
  V. Asgeirsson          : NEB                                           
  Christoph Bannwarth    : sTDA-DFT, sTD-DFT, PBEh-3c, B97-3c, D3        
  Giovanni Bistoni       : ETS/NOCV, ADLD/ADEX, COVALED                  
  Martin Brehm           : Molecular dynamics                            
  Ronald Cardenas        : ETS/NOCV                                      
  Martina Colucci        : COVALED                                       
  Sebastian Ehlert       : rSCAN, r2SCAN, r2SCAN-3c, D4, dhf basis sets  
  Marvin Friede          : D4 for Fr, Ra, Ac-Lr                          
  Lars Goerigk           : TD-DFT with DH, B97 family of functionals     
  Stefan Grimme          : VdW corrections, initial TS optimization, DFT functionals, gCP, sTDA/sTD-DF 
  Waldemar Hujo          : DFT-NL                                        
  H. Jonsson             : NEB                                           
  Holger Kruse           : gCP                                           
  Marcel Mueller         : wB97X-3c, vDZP basis set                      
  Hagen Neugebauer       : wr2SCAN, Native XTB                           
  Gianluca Regni         : ADLD/ADEX                                     
  Tobias Risthaus        : pre 6.0 range-separated hybrid DFT and stability analysis
  Lukas Wittmann         : regularized MP2, r2SCAN double-hybrids, wr2SCAN        
                                                                         
We gratefully acknowledge several colleagues who have allowed us to      
interface, adapt or use parts of their codes:                            
  Ed Valeev, F. Pavosevic, A. Kumar             : LibInt (2-el integral package), F12 methods 
  Garnet Chan, S. Sharma, J. Yang, R. Olivares  : DMRG                   
  Ulf Ekstrom                                   : XCFun DFT Library      
  Mihaly Kallay                                 : mrcc  (arbitrary order and MRCC methods)
  Frank Weinhold                                : gennbo (NPA and NBO analysis)           
  Simon Mueller                                 : openCOSMO-RS                            
  Christopher J. Cramer and Donald G. Truhlar   : smd solvation model                     
  S Lehtola, MJT Oliveira, MAL Marques          : LibXC Library                           
  Liviu Ungur et al                             : ANISO software                          


 Your calculation uses the libint2 library for the computation of 2-el integrals
 For citations please refer to: http://libint.valeyev.net

 Your ORCA version has been built with support for libXC version: 7.0.0
 For citations please refer to: https://libxc.gitlab.io

 This ORCA versions uses:
   CBLAS   interface :  Fast vector & matrix operations
   LAPACKE interface :  Fast linear algebra routines
   SCALAPACK package :  Parallel linear algebra routines
   Shared memory     :  Shared parallel matrices
   BLAS/LAPACK       :  OpenBLAS 0.3.29  USE64BITINT DYNAMIC_ARCH NO_AFFINITY Zen SINGLE_THREADED
        Core in use  :  Zen
   Copyright (c) 2011-2014, The OpenBLAS Project


  ***********************************
  * Starting time: Wed Sep 10 13:39:27 2025
  * Host name:     wyk-Server
  * Process ID:    2314893
  * Working dir.:  /home/wyk/Documents/code/openQDC/MGMR/singlepointcalc/106/prod
  ***********************************

Your calculation utilizes the atom-pairwise dispersion correction
with the Becke-Johnson damping scheme (D3BJ)


Warning: RI is on but no J-basis has been assigned. Assigning Def2/J (nothing to worry about!)
================================================================================

----- Orbital basis set information -----
Your calculation utilizes the basis: def2-SVP
   F. Weigend and R. Ahlrichs, Phys. Chem. Chem. Phys. 7, 3297 (2005).

----- AuxJ basis set information -----
Your calculation utilizes the auxiliary basis: def2/J
   H-Rn: F. Weigend, Phys. Chem. Chem. Phys. 8, 1057 (2006).
   Fr-Lr: K. Eichkorn, F. Weigend, O. Treutler, R. Ahlrichs; Theor. Chem. Acc. 97, 119 (1997).

================================================================================
                                        WARNINGS
                       Please study these warnings very carefully!
================================================================================


================================================================================
                                       INPUT FILE
================================================================================
NAME = orca.inp
|  1> ! B3LYP def2-SVP d3 EnGrad 
|  2> %pal nprocs 6 end 
|  3> *xyz 0 1 
|  4> C   1.1894879476132 -0.77902008340434 -0.51469737173688
|  5> C   -0.08622748241589 -1.12689982220386 0.32364464976525
|  6> C   -1.27602867479992 -0.67155585509938 -0.50901377108258
|  7> C   -1.27601347654515 0.67158715664281 -0.50901124172697
|  8> C   -0.08620203839753 1.12690046781746 0.32364943687766
|  9> C   1.18950378947261 0.77899579447276 -0.51469604595797
| 10> H   -0.11770011014044 -2.16201722109584 0.69055162447768
| 11> H   2.09080552001429 1.18065568997406 -0.02513944513645
| 12> H   1.14190239168776 -1.20848491295008 -1.52596036070968
| 13> H   -1.92203002079978 1.33298425356802 -1.0906405354352
| 14> H   -0.11764931915887 2.16201689843447 0.69056131948635
| 15> H   1.1419221731425 1.20846162420377 -1.52595871119277
| 16> H   2.09077961394775 -1.18069801421398 -0.02513707002677
| 17> H   -1.92206133309113 -1.33293613821556 -1.09064422628168
| 18> C   -0.04125460929224 -2.44566957e-06 1.38068860544037
| 19> H   -0.91902969818267 5.89528956e-06 2.04411223856102
| 20> H   0.8815363269455 -1.42775503e-05 1.98433790467864
| 21> *
| 22> 
| 23>                          ****END OF INPUT****
================================================================================

                     *******************************
                     * Energy+Gradient Calculation *
                     *******************************

---------------------------------
CARTESIAN COORDINATES (ANGSTROEM)
---------------------------------
  C      1.189488   -0.779020   -0.514697
  C     -0.086227   -1.126900    0.323645
  C     -1.276029   -0.671556   -0.509014
  C     -1.276013    0.671587   -0.509011
  C     -0.086202    1.126900    0.323649
  C      1.189504    0.778996   -0.514696
  H     -0.117700   -2.162017    0.690552
  H      2.090806    1.180656   -0.025139
  H      1.141902   -1.208485   -1.525960
  H     -1.922030    1.332984   -1.090641
  H     -0.117649    2.162017    0.690561
  H      1.141922    1.208462   -1.525959
  H      2.090780   -1.180698   -0.025137
  H     -1.922061   -1.332936   -1.090644
  C     -0.041255   -0.000002    1.380689
  H     -0.919030    0.000006    2.044112
  H      0.881536   -0.000014    1.984338

----------------------------
CARTESIAN COORDINATES (A.U.)
----------------------------
  NO LB      ZA    FRAG     MASS         X           Y           Z
   0 C     6.0000    0    12.011    2.247806   -1.472135   -0.972637
   1 C     6.0000    0    12.011   -0.162946   -2.129532    0.611600
   2 C     6.0000    0    12.011   -2.411345   -1.269057   -0.961897
   3 C     6.0000    0    12.011   -2.411316    1.269116   -0.961892
   4 C     6.0000    0    12.011   -0.162898    2.129533    0.611609
   5 C     6.0000    0    12.011    2.247836    1.472089   -0.972635
   6 H     1.0000    0     1.008   -0.222421   -4.085620    1.304953
   7 H     1.0000    0     1.008    3.951050    2.231116   -0.047507
   8 H     1.0000    0     1.008    2.157883   -2.283706   -2.883647
   9 H     1.0000    0     1.008   -3.632110    2.518975   -2.061012
  10 H     1.0000    0     1.008   -0.222325    4.085620    1.304972
  11 H     1.0000    0     1.008    2.157920    2.283662   -2.883644
  12 H     1.0000    0     1.008    3.951001   -2.231196   -0.047502
  13 H     1.0000    0     1.008   -3.632170   -2.518884   -2.061019
  14 C     6.0000    0    12.011   -0.077960   -0.000005    2.609123
  15 H     1.0000    0     1.008   -1.736714    0.000011    3.862812
  16 H     1.0000    0     1.008    1.665862   -0.000027    3.749855

--------------------------------
INTERNAL COORDINATES (ANGSTROEM)
--------------------------------
 C      0   0   0     0.000000000000     0.00000000     0.00000000
 C      1   0   0     1.565658812161     0.00000000     0.00000000
 C      2   1   0     1.521934641036   106.11492843     0.00000000
 C      3   2   1     1.343143011831   107.40822179   289.44969691
 C      4   3   2     1.521934714557   107.40819750     0.00000000
 C      1   2   3     1.558015877958   102.83838044    67.34108325
 H      2   1   3     1.098671599650   114.29911223   129.45457620
 H      6   1   2     1.101517656027   111.38610409   118.17942032
 H      1   2   3     1.099707805654   111.73792184   305.86977480
 H      4   3   2     1.092280243606   127.26568721   172.98794135
 H      5   4   3     1.098671600616   116.24408901   198.86631823
 H      6   1   2     1.099707728088   112.98723404   239.38294696
 H      1   2   3     1.101517642580   110.34646733   186.24877543
 H      3   2   1     1.092280211708   124.92820570   102.64429087
 C      2   1   3     1.545723837167   100.39751919   255.98388558
 H     15   2   1     1.100281792874   112.90021208   175.03778750
 H     15   2   1     1.102694694198   113.49701789   300.71348553

---------------------------
INTERNAL COORDINATES (A.U.)
---------------------------
 C      0   0   0     0.000000000000     0.00000000     0.00000000
 C      1   0   0     2.958666374145     0.00000000     0.00000000
 C      2   1   0     2.876039665286   106.11492843     0.00000000
 C      3   2   1     2.538172451050   107.40822179   289.44969691
 C      4   3   2     2.876039804221   107.40819750     0.00000000
 C      1   2   3     2.944223321642   102.83838044    67.34108325
 H      2   1   3     2.076188434456   114.29911223   129.45457620
 H      6   1   2     2.081566701570   111.38610409   118.17942032
 H      1   2   3     2.078146580021   111.73792184   305.86977480
 H      4   3   2     2.064110521908   127.26568721   172.98794135
 H      5   4   3     2.076188436281   116.24408901   198.86631823
 H      6   1   2     2.078146433443   112.98723404   239.38294696
 H      1   2   3     2.081566676158   110.34646733   186.24877543
 H      3   2   1     2.064110461630   124.92820570   102.64429087
 C      2   1   3     2.920994730919   100.39751919   255.98388558
 H     15   2   1     2.079231258671   112.90021208   175.03778750
 H     15   2   1     2.083790981363   113.49701789   300.71348553

---------------------
BASIS SET INFORMATION
---------------------
There are 2 groups of distinct atoms

 Group   1 Type C   : 7s4p1d contracted to 3s2p1d pattern {511/31/1}
 Group   2 Type H   : 4s1p contracted to 2s1p pattern {31/1}

Atom   0C    basis set group =>   1
Atom   1C    basis set group =>   1
Atom   2C    basis set group =>   1
Atom   3C    basis set group =>   1
Atom   4C    basis set group =>   1
Atom   5C    basis set group =>   1
Atom   6H    basis set group =>   2
Atom   7H    basis set group =>   2
Atom   8H    basis set group =>   2
Atom   9H    basis set group =>   2
Atom  10H    basis set group =>   2
Atom  11H    basis set group =>   2
Atom  12H    basis set group =>   2
Atom  13H    basis set group =>   2
Atom  14C    basis set group =>   1
Atom  15H    basis set group =>   2
Atom  16H    basis set group =>   2
---------------------------------
AUXILIARY/J BASIS SET INFORMATION
---------------------------------
There are 2 groups of distinct atoms

 Group   1 Type C   : 12s5p4d2f1g contracted to 6s4p3d1f1g pattern {711111/2111/211/2/1}
 Group   2 Type H   : 5s2p1d contracted to 3s1p1d pattern {311/2/1}

Atom   0C    basis set group =>   1
Atom   1C    basis set group =>   1
Atom   2C    basis set group =>   1
Atom   3C    basis set group =>   1
Atom   4C    basis set group =>   1
Atom   5C    basis set group =>   1
Atom   6H    basis set group =>   2
Atom   7H    basis set group =>   2
Atom   8H    basis set group =>   2
Atom   9H    basis set group =>   2
Atom  10H    basis set group =>   2
Atom  11H    basis set group =>   2
Atom  12H    basis set group =>   2
Atom  13H    basis set group =>   2
Atom  14C    basis set group =>   1
Atom  15H    basis set group =>   2
Atom  16H    basis set group =>   2


           ************************************************************
           *        Program running with 6 parallel MPI-processes     *
           *              working on a common directory               *
           ************************************************************
------------------------------------------------------------------------------
                             ORCA STARTUP CALCULATIONS
                           -- RI-GTO INTEGRALS CHOSEN --
------------------------------------------------------------------------------
------------------------------------------------------------------------------
                   ___                                                        
                  /   \      - P O W E R E D   B Y -                         
                 /     \                                                     
                 |  |  |   _    _      __       _____    __    __             
                 |  |  |  | |  | |    /  \     |  _  \  |  |  /  |          
                  \  \/   | |  | |   /    \    | | | |  |  | /  /          
                 / \  \   | |__| |  /  /\  \   | |_| |  |  |/  /          
                |  |  |   |  __  | /  /__\  \  |    /   |      \           
                |  |  |   | |  | | |   __   |  |    \   |  |\   \          
                \     /   | |  | | |  |  |  |  | |\  \  |  | \   \       
                 \___/    |_|  |_| |__|  |__|  |_| \__\ |__|  \__/        
                                                                              
                      - O R C A' S   B I G   F R I E N D -                    
                                      &                                       
                       - I N T E G R A L  F E E D E R -                       
                                                                              
 v1 FN, 2020, v2 2021, v3 2022-2024                                           
------------------------------------------------------------------------------


----------------------
SHARK INTEGRAL PACKAGE
----------------------

Number of atoms                             ...     17
Number of basis functions                   ...    148
Number of shells                            ...     72
Maximum angular momentum                    ...      2
Integral batch strategy                     ... SHARK/LIBINT Hybrid
RI-J (if used) integral strategy            ... SPLIT-RIJ (Revised 2003 algorithm where possible)
Printlevel                                  ...      1
Contraction scheme used                     ... SEGMENTED contraction
Prescreening option                         ... SCHWARTZ
   Thresh                                   ... 2.500e-11
   Tcut                                     ... 2.500e-12
   Tpresel                                  ... 2.500e-12 
Coulomb Range Separation                    ... NOT USED
Exchange Range Separation                   ... NOT USED
Multipole approximations                    ... NOT USED
Finite Nucleus Model                        ... NOT USED
CABS basis                                  ... NOT available
Auxiliary Coulomb fitting basis             ... AVAILABLE
   # of basis functions in Aux-J            ...    453
   # of shells in Aux-J                     ...    155
   Maximum angular momentum in Aux-J        ...      4
Auxiliary J/K fitting basis                 ... NOT available
Auxiliary Correlation fitting basis         ... NOT available
Auxiliary 'external' fitting basis          ... NOT available

Checking pre-screening integrals            ... done (  0.0 sec) Dimension = 72
   => SHARK Basis and OBASIS are compatible. Storing Pre-screening
Shell pair information
Shell pair cut-off parameter TPreSel        ...   2.5e-12
Total number of shell pairs                 ...      2628
Shell pairs after pre-screening             ...      2609
Total number of primitive shell pairs       ...      9166
Primitive shell pairs kept                  ...      7098
          la=0 lb=0:    848 shell pairs
          la=1 lb=0:    980 shell pairs
          la=1 lb=1:    298 shell pairs
          la=2 lb=0:    287 shell pairs
          la=2 lb=1:    168 shell pairs
          la=2 lb=2:     28 shell pairs

Checking whether 4 symmetric matrices of dimension 148 fit in memory
:Max Core in MB      =   4096.00
 MB in use           =      6.69
 MB left             =   4089.31
 MB needed           =      0.34
 Data fit in memory  = YES
Calculating RI/J V-Matrix + Cholesky decomp.... done (  0.0 sec)
Calculating Nuclear repulsion               ... done (  0.0 sec) ENN=    307.160396545722 Eh

Diagonalization of the overlap matrix:
Smallest eigenvalue                        ... 5.231e-04
Time for diagonalization                   ...    0.003 sec
Threshold for overlap eigenvalues          ... 1.000e-07
Number of eigenvalues below threshold      ... 0
Time for construction of square roots      ...    0.001 sec
Total time needed                          ...    0.006 sec

-------------------
DFT GRID GENERATION
-------------------

General Integration Accuracy     IntAcc      ... 4.388
Radial Grid Type                 RadialGrid  ... OptM3 with GC (2021)
Angular Grid (max. ang.)         AngularGrid ... 4 (Lebedev-302)
Angular grid pruning method      GridPruning ... 4 (adaptive)
Weight generation scheme         WeightScheme... mBecke (2022)
Basis function cutoff            BFCut       ... 1.0000e-11
Integration weight cutoff        WCut        ... 1.0000e-14
Partially contracted basis set               ... off
Rotationally invariant grid construction     ... off
Angular grids for H and He will be reduced by one unit

Total number of grid points                  ...    73770
Total number of batches                      ...     1162
Average number of points per batch           ...       63
Average number of grid points per atom       ...     4339

--------------------
COSX GRID GENERATION
--------------------

GRIDX 1
-------
General Integration Accuracy     IntAcc      ... 3.816
Radial Grid Type                 RadialGrid  ... OptM3 with GC (2021)
Angular Grid (max. ang.)         AngularGrid ... 1 (Lebedev-50)
Angular grid pruning method      GridPruning ... 4 (adaptive)
Weight generation scheme         WeightScheme... mBecke (2022)
Basis function cutoff            BFCut       ... 1.0000e-11
Integration weight cutoff        WCut        ... 1.0000e-14
Partially contracted basis set               ... on
Rotationally invariant grid construction     ... off
Angular grids for H and He will be reduced by one unit

Total number of grid points                  ...     9422
Total number of batches                      ...       85
Average number of points per batch           ...      110
Average number of grid points per atom       ...      554
UseSFitting                                  ... on

GRIDX 2
-------
General Integration Accuracy     IntAcc      ... 4.020
Radial Grid Type                 RadialGrid  ... OptM3 with GC (2021)
Angular Grid (max. ang.)         AngularGrid ... 2 (Lebedev-110)
Angular grid pruning method      GridPruning ... 4 (adaptive)
Weight generation scheme         WeightScheme... mBecke (2022)
Basis function cutoff            BFCut       ... 1.0000e-11
Integration weight cutoff        WCut        ... 1.0000e-14
Partially contracted basis set               ... on
Rotationally invariant grid construction     ... off
Angular grids for H and He will be reduced by one unit

Total number of grid points                  ...    19935
Total number of batches                      ...      164
Average number of points per batch           ...      121
Average number of grid points per atom       ...     1173
UseSFitting                                  ... on

GRIDX 3
-------
General Integration Accuracy     IntAcc      ... 4.338
Radial Grid Type                 RadialGrid  ... OptM3 with GC (2021)
Angular Grid (max. ang.)         AngularGrid ... 3 (Lebedev-194)
Angular grid pruning method      GridPruning ... 4 (adaptive)
Weight generation scheme         WeightScheme... mBecke (2022)
Basis function cutoff            BFCut       ... 1.0000e-11
Integration weight cutoff        WCut        ... 1.0000e-14
Partially contracted basis set               ... on
Rotationally invariant grid construction     ... off
Angular grids for H and He will be reduced by one unit

Total number of grid points                  ...    43554
Total number of batches                      ...      349
Average number of points per batch           ...      124
Average number of grid points per atom       ...     2562
UseSFitting                                  ... on
Grids setup in   1.0 sec
Initializing property integral containers    ... done (  0.0 sec)

SHARK setup successfully completed in   1.1 seconds

Maximum memory used throughout the entire STARTUP-calculation: 19.9 MB


           ************************************************************
           *        Program running with 6 parallel MPI-processes     *
           *              working on a common directory               *
           ************************************************************
-------------------------------------------------------------------------------
                                 ORCA GUESS
                   Start orbitals & Density for SCF / CASSCF
-------------------------------------------------------------------------------

------------
SCF SETTINGS
------------
Hamiltonian:
 Density Functional     Method          .... DFT(GTOs)
 Exchange Functional    Exchange        .... B88
   X-Alpha parameter    XAlpha          ....  0.666667
   Becke's b parameter  XBeta           ....  0.004200
 Correlation Functional Correlation     .... LYP
 LDA part of GGA corr.  LDAOpt          .... VWN-5
 Gradients option       PostSCFGGA      .... off
 Hybrid DFT is turned on
   Fraction HF Exchange ScalHFX         ....  0.200000
   Scaling of DF-GGA-X  ScalDFX         ....  0.720000
   Scaling of DF-GGA-C  ScalDFC         ....  0.810000
   Scaling of DF-LDA-C  ScalLDAC        ....  1.000000
   Perturbative correction              ....  0.000000
   NL short-range parameter             ....  4.800000
 RI-approximation to the Coulomb term is turned on
   Number of AuxJ basis functions       .... 453
   RIJ-COSX (HFX calculated with COS-X)).... on


General Settings:
 Integral files         IntName         .... orca
 Hartree-Fock type      HFTyp           .... RHF
 Total Charge           Charge          ....    0
 Multiplicity           Mult            ....    1
 Number of Electrons    NEL             ....   52
 Basis Dimension        Dim             ....  148
 Nuclear Repulsion      ENuc            ....    307.1603965457 Eh

Convergence Acceleration:
 AO-DIIS                CNVDIIS         .... on
   Start iteration      DIISMaxIt       ....    12
   Startup error        DIISStart       ....  0.200000
   # of expansion vecs  DIISMaxEq       ....     5
   Bias factor          DIISBfac        ....   1.050
   Max. coefficient     DIISMaxC        ....  10.000
 MO-DIIS                CNVKDIIS        .... off
 Trust-Rad. Augm. Hess. CNVTRAH         .... auto
   Auto Start mean grad. ratio tolernc. ....  1.125000
   Auto Start start iteration           ....    50
   Auto Start num. interpolation iter.  ....    10
   Max. Number of Micro iterations      ....    24
   Max. Number of Macro iterations      .... Maxiter - #DIIS iter
   Number of Davidson start vectors     ....     2
   Converg. threshold    (grad. norm)   ....   1.000e-05
   Grad. Scal. Fac. for Micro threshold ....   0.100
   Minimum threshold for Micro iter.    ....   1.000e-02
   NR start threshold (gradient norm)   ....   1.000e-04
   Initial trust radius                 ....   0.400
   Minimum AH scaling param. (alpha)    ....   1.000
   Maximum AH scaling param. (alpha)    .... 1000.000
   Quad. conv. algorithm                .... NR
   White noise on init. David. guess    .... on
   Maximum white noise                  ....   0.010
   Pseudo random numbers                .... off
   Inactive MOs                         .... canonical
   Orbital update algorithm             .... Taylor
   Preconditioner                       .... Diag
   Full preconditioner red. dimension   ....   250
 SOSCF                 CNVSOSCF           .... on
   Start iteration     SOSCFMaxIt         ....   150
   Startup grad/error  SOSCFStart         ....  0.003300
   Hessian update      SOSCFHessUp        .... L-BFGS
   Autom. constraints  SOSCFAutoConstrain .... off
 Level Shifting         CNVShift        .... on
   Level shift para.    LevelShift      ....    0.2500
   Turn off err/grad.   ShiftErr        ....    0.0010
 Zerner damping         CNVZerner       .... off
 Static damping         CNVDamp         .... on
   Fraction old density DampFac         ....    0.7000
   Max. Damping (<1)    DampMax         ....    0.9800
   Min. Damping (>=0)   DampMin         ....    0.0000
   Turn off err/grad.   DampErr         ....    0.1000

SCF Procedure:
 Maximum # iterations   MaxIter         ....   125
 SCF integral mode      SCFMode         .... Direct
   Integral package                     .... SHARK and LIBINT hybrid scheme
 Reset frequency        DirectResetFreq ....    20
 Integral Threshold     Thresh          ....  2.500e-11 Eh
 Primitive CutOff       TCut            ....  2.500e-12 Eh

Convergence Tolerance:
 Convergence Check Mode ConvCheckMode   .... Total+1el-Energy
 Convergence forced     ConvForced      .... 0
 Energy Change          TolE            ....  1.000e-08 Eh
 1-El. energy change                    ....  1.000e-05 Eh
 Orbital Gradient       TolG            ....  1.000e-05
 Orbital Rotation angle TolX            ....  1.000e-05
 DIIS Error             TolErr          ....  5.000e-07

------------------------------
INITIAL GUESS: MODEL POTENTIAL
------------------------------
Loading Hartree-Fock densities                     ... done
Calculating cut-offs                               ... done
Initializing the effective Hamiltonian             ... done
Setting up the integral package (SHARK)            ... done
Starting the Coulomb interaction                   ... done (   0.0 sec)
Making the grid                                    ... done (   0.1 sec)
Mapping shells                                     ... done
Starting the XC term evaluation                    ... done (   0.1 sec)
  promolecular density results
     # of electrons  =     52.000793041
     EX              =    -38.963234290
     EC              =     -1.697580956
     EX+EC           =    -40.660815247
Transforming the Hamiltonian                       ... done (   0.0 sec)
Diagonalizing the Hamiltonian                      ... done (   0.0 sec)
Back transforming the eigenvectors                 ... done (   0.0 sec)
Now organizing SCF variables                       ... done
                      ------------------
                      INITIAL GUESS DONE (   0.2 sec)
                      ------------------
             **** ENERGY FILE WAS UPDATED (orca.en.tmp) ****
Finished Guess after   0.4 sec
Maximum memory used throughout the entire GUESS-calculation: 9.3 MB


           ************************************************************
           *        Program running with 6 parallel MPI-processes     *
           *              working on a common directory               *
           ************************************************************

-------------------------------------------------------------------------------------------
                                      ORCA LEAN-SCF
                              memory conserving SCF solver
-------------------------------------------------------------------------------------------

----------------------------------------D-I-I-S--------------------------------------------
Iteration    Energy (Eh)           Delta-E    RMSDP     MaxDP     DIISErr   Damp  Time(sec)
-------------------------------------------------------------------------------------------
               ***  Starting incremental Fock matrix formation  ***
    1    -272.1589454552894267     0.00e+00  9.06e-03  7.01e-02  1.46e-01  0.700   1.2
    2    -272.2439996399361917    -8.51e-02  6.30e-03  4.29e-02  7.51e-02  0.700   0.7
                               ***Turning on AO-DIIS***
    3    -272.2777659267566150    -3.38e-02  2.83e-03  1.61e-02  2.77e-02  0.700   0.7
    4    -272.2977251618049195    -2.00e-02  5.90e-03  4.15e-02  1.33e-02  0.000   0.7
    5    -272.3417472338294374    -4.40e-02  8.40e-04  4.11e-03  4.79e-03  0.000   0.7
                              *** Initializing SOSCF ***
---------------------------------------S-O-S-C-F--------------------------------------
Iteration    Energy (Eh)           Delta-E    RMSDP     MaxDP     MaxGrad    Time(sec)
--------------------------------------------------------------------------------------
    6    -272.3420226724158510    -2.75e-04  2.99e-04  1.48e-03  1.12e-03     0.7
               *** Restarting incremental Fock matrix formation ***
    7    -272.3419999371359381     2.27e-05  1.95e-04  1.18e-03  2.18e-04     1.2
    8    -272.3420007118348849    -7.75e-07  4.95e-05  3.64e-04  1.98e-04     0.9
    9    -272.3420016438241191    -9.32e-07  2.76e-05  1.94e-04  2.81e-05     0.9
   10    -272.3420016750895911    -3.13e-08  8.08e-06  4.83e-05  1.79e-05     0.8
   11    -272.3420016927975666    -1.77e-08  4.35e-06  2.49e-05  6.17e-06     0.8
   12    -272.3420016916711575     1.13e-09  2.15e-06  1.48e-05  3.13e-06     0.7
                 **** Energy Check signals convergence ****

               *****************************************************
               *                     SUCCESS                       *
               *           SCF CONVERGED AFTER  12 CYCLES          *
               *****************************************************

Recomputing exchange energy using gridx3       ... done (    1.741 sec)
Old exchange energy                            :     -7.956068710 Eh
New exchange energy                            :     -7.956027169 Eh
Exchange energy change after final integration :      0.000041541 Eh
Total energy after final integration           :   -272.341960155 Eh
             **** ENERGY FILE WAS UPDATED (orca.en.tmp) ****

----------------
TOTAL SCF ENERGY
----------------

Total Energy       :       -272.34196015518006 Eh           -7410.80149 eV

Components:
Nuclear Repulsion  :        307.16039654572160 Eh            8358.25932 eV
Electronic Energy  :       -579.50239824202822 Eh          -15769.06194 eV
One Electron Energy:       -974.43666209771493 Eh          -26515.76961 eV
Two Electron Energy:        394.93426385568677 Eh           10746.70767 eV

Virial components:
Potential Energy   :       -541.47303536697677 Eh          -14734.23037 eV
Kinetic Energy     :        269.13107521179671 Eh            7323.42887 eV
Virial Ratio       :          2.01193056186788

DFT components:
N(Alpha)           :       25.999964379547 electrons
N(Beta)            :       25.999964379547 electrons
N(Total)           :       51.999928759093 electrons
E(X)               :      -31.527934491480 Eh       
E(C)               :       -2.006678551508 Eh       
E(XC)              :      -33.534613042987 Eh       

---------------
SCF CONVERGENCE
---------------

  Last Energy change         ...   -1.1264e-09  Tolerance :   1.0000e-08
  Last MAX-Density change    ...    1.4751e-05  Tolerance :   1.0000e-07
  Last RMS-Density change    ...    2.1464e-06  Tolerance :   5.0000e-09
  Last DIIS Error            ...    1.1157e-03  Tolerance :   5.0000e-07
  Last Orbital Gradient      ...    3.1298e-06  Tolerance :   1.0000e-05
  Last Orbital Rotation      ...    3.8082e-06  Tolerance :   1.0000e-05


----------------
ORBITAL ENERGIES
----------------

  NO   OCC          E(Eh)            E(eV) 
   0   2.0000     -10.185708      -277.1672 
   1   2.0000     -10.185687      -277.1666 
   2   2.0000     -10.177977      -276.9568 
   3   2.0000     -10.177941      -276.9559 
   4   2.0000     -10.176583      -276.9189 
   5   2.0000     -10.174508      -276.8624 
   6   2.0000     -10.173780      -276.8426 
   7   2.0000      -0.869706       -23.6659 
   8   2.0000      -0.728787       -19.8313 
   9   2.0000      -0.702977       -19.1290 
  10   2.0000      -0.681338       -18.5401 
  11   2.0000      -0.570240       -15.5170 
  12   2.0000      -0.547336       -14.8938 
  13   2.0000      -0.507784       -13.8175 
  14   2.0000      -0.502411       -13.6713 
  15   2.0000      -0.467962       -12.7339 
  16   2.0000      -0.434463       -11.8223 
  17   2.0000      -0.391701       -10.6587 
  18   2.0000      -0.377618       -10.2755 
  19   2.0000      -0.345960        -9.4140 
  20   2.0000      -0.344064        -9.3625 
  21   2.0000      -0.340113        -9.2549 
  22   2.0000      -0.331077        -9.0091 
  23   2.0000      -0.322368        -8.7721 
  24   2.0000      -0.300346        -8.1728 
  25   2.0000      -0.236853        -6.4451 
  26   0.0000       0.015832         0.4308 
  27   0.0000       0.059770         1.6264 
  28   0.0000       0.096238         2.6188 
  29   0.0000       0.098829         2.6893 
  30   0.0000       0.109357         2.9758 
  31   0.0000       0.118983         3.2377 
  32   0.0000       0.135929         3.6988 
  33   0.0000       0.135983         3.7003 
  34   0.0000       0.144951         3.9443 
  35   0.0000       0.148932         4.0527 
  36   0.0000       0.176027         4.7899 
*Only the first 10 virtual orbitals were printed.

                    ********************************
                    * MULLIKEN POPULATION ANALYSIS *
                    ********************************

-----------------------
MULLIKEN ATOMIC CHARGES
-----------------------
   0 C :    0.095404
   1 C :   -0.084306
   2 C :   -0.010731
   3 C :   -0.010731
   4 C :   -0.084306
   5 C :    0.095404
   6 H :   -0.016883
   7 H :   -0.005335
   8 H :   -0.007985
   9 H :   -0.016408
  10 H :   -0.016883
  11 H :   -0.007986
  12 H :   -0.005335
  13 H :   -0.016408
  14 C :    0.094808
  15 H :    0.005038
  16 H :   -0.007356
Sum of atomic charges:   -0.0000000

--------------------------------
MULLIKEN REDUCED ORBITAL CHARGES
--------------------------------
  0 C s       :     2.946059  s :     2.946059
      pz      :     0.973930  p :     2.924081
      px      :     0.952413
      py      :     0.997738
      dz2     :     0.006995  d :     0.034455
      dxz     :     0.006412
      dyz     :     0.006398
      dx2y2   :     0.008861
      dxy     :     0.005789

  1 C s       :     3.184095  s :     3.184095
      pz      :     0.948736  p :     2.855835
      px      :     0.960534
      py      :     0.946564
      dz2     :     0.006433  d :     0.044376
      dxz     :     0.010302
      dyz     :     0.009145
      dx2y2   :     0.012699
      dxy     :     0.005798

  2 C s       :     3.215903  s :     3.215903
      pz      :     0.956855  p :     2.759830
      px      :     0.888875
      py      :     0.914100
      dz2     :     0.003614  d :     0.034998
      dxz     :     0.004623
      dyz     :     0.008710
      dx2y2   :     0.008362
      dxy     :     0.009688

  3 C s       :     3.215902  s :     3.215902
      pz      :     0.956855  p :     2.759831
      px      :     0.888878
      py      :     0.914098
      dz2     :     0.003614  d :     0.034998
      dxz     :     0.004623
      dyz     :     0.008710
      dx2y2   :     0.008362
      dxy     :     0.009688

  4 C s       :     3.184095  s :     3.184095
      pz      :     0.948735  p :     2.855834
      px      :     0.960533
      py      :     0.946566
      dz2     :     0.006433  d :     0.044376
      dxz     :     0.010302
      dyz     :     0.009145
      dx2y2   :     0.012699
      dxy     :     0.005798

  5 C s       :     2.946058  s :     2.946058
      pz      :     0.973931  p :     2.924083
      px      :     0.952414
      py      :     0.997737
      dz2     :     0.006995  d :     0.034455
      dxz     :     0.006412
      dyz     :     0.006398
      dx2y2   :     0.008861
      dxy     :     0.005789

  6 H s       :     0.995865  s :     0.995865
      pz      :     0.004819  p :     0.021018
      px      :     0.003431
      py      :     0.012768

  7 H s       :     0.983224  s :     0.983224
      pz      :     0.006187  p :     0.022111
      px      :     0.010643
      py      :     0.005281

  8 H s       :     0.986024  s :     0.986024
      pz      :     0.012420  p :     0.021961
      px      :     0.004183
      py      :     0.005358

  9 H s       :     0.993487  s :     0.993487
      pz      :     0.007538  p :     0.022921
      px      :     0.007764
      py      :     0.007619

 10 H s       :     0.995865  s :     0.995865
      pz      :     0.004819  p :     0.021018
      px      :     0.003431
      py      :     0.012768

 11 H s       :     0.986025  s :     0.986025
      pz      :     0.012420  p :     0.021961
      px      :     0.004183
      py      :     0.005358

 12 H s       :     0.983224  s :     0.983224
      pz      :     0.006187  p :     0.022111
      px      :     0.010643
      py      :     0.005281

 13 H s       :     0.993487  s :     0.993487
      pz      :     0.007538  p :     0.022921
      px      :     0.007765
      py      :     0.007619

 14 C s       :     3.032603  s :     3.032603
      pz      :     0.940619  p :     2.835195
      px      :     0.958627
      py      :     0.935949
      dz2     :     0.003417  d :     0.037394
      dxz     :     0.012282
      dyz     :     0.010077
      dx2y2   :     0.008419
      dxy     :     0.003200

 15 H s       :     0.973202  s :     0.973202
      pz      :     0.007204  p :     0.021760
      px      :     0.010689
      py      :     0.003868

 16 H s       :     0.985659  s :     0.985659
      pz      :     0.006923  p :     0.021697
      px      :     0.010968
      py      :     0.003806



                     *******************************
                     * LOEWDIN POPULATION ANALYSIS *
                     *******************************

----------------------
LOEWDIN ATOMIC CHARGES
----------------------
   0 C :   -0.020565
   1 C :   -0.027420
   2 C :   -0.029008
   3 C :   -0.029008
   4 C :   -0.027419
   5 C :   -0.020565
   6 H :    0.013262
   7 H :    0.018202
   8 H :    0.017273
   9 H :    0.017342
  10 H :    0.013262
  11 H :    0.017273
  12 H :    0.018202
  13 H :    0.017342
  14 C :   -0.008831
  15 H :    0.018245
  16 H :    0.012412

-------------------------------
LOEWDIN REDUCED ORBITAL CHARGES
-------------------------------
  0 C s       :     2.854755  s :     2.854755
      pz      :     1.047655  p :     3.082000
      px      :     1.016965
      py      :     1.017380
      dz2     :     0.017418  d :     0.083810
      dxz     :     0.016303
      dyz     :     0.014097
      dx2y2   :     0.023632
      dxy     :     0.012360

  1 C s       :     2.856746  s :     2.856746
      pz      :     1.017775  p :     3.066770
      px      :     1.018234
      py      :     1.030762
      dz2     :     0.012042  d :     0.103903
      dxz     :     0.025128
      dyz     :     0.023922
      dx2y2   :     0.031728
      dxy     :     0.011083

  2 C s       :     2.884409  s :     2.884409
      pz      :     0.997098  p :     3.056846
      px      :     0.983442
      py      :     1.076306
      dz2     :     0.008588  d :     0.087753
      dxz     :     0.010787
      dyz     :     0.020348
      dx2y2   :     0.024089
      dxy     :     0.023942

  3 C s       :     2.884409  s :     2.884409
      pz      :     0.997098  p :     3.056846
      px      :     0.983442
      py      :     1.076306
      dz2     :     0.008588  d :     0.087753
      dxz     :     0.010787
      dyz     :     0.020348
      dx2y2   :     0.024089
      dxy     :     0.023941

  4 C s       :     2.856746  s :     2.856746
      pz      :     1.017774  p :     3.066770
      px      :     1.018234
      py      :     1.030762
      dz2     :     0.012042  d :     0.103903
      dxz     :     0.025129
      dyz     :     0.023923
      dx2y2   :     0.031728
      dxy     :     0.011083

  5 C s       :     2.854755  s :     2.854755
      pz      :     1.047655  p :     3.082000
      px      :     1.016966
      py      :     1.017380
      dz2     :     0.017418  d :     0.083810
      dxz     :     0.016303
      dyz     :     0.014097
      dx2y2   :     0.023633
      dxy     :     0.012359

  6 H s       :     0.920598  s :     0.920598
      pz      :     0.015982  p :     0.066140
      px      :     0.012794
      py      :     0.037363

  7 H s       :     0.915990  s :     0.915990
      pz      :     0.017914  p :     0.065808
      px      :     0.031706
      py      :     0.016188

  8 H s       :     0.916937  s :     0.916937
      pz      :     0.036520  p :     0.065790
      px      :     0.012549
      py      :     0.016721

  9 H s       :     0.913407  s :     0.913407
      pz      :     0.023599  p :     0.069251
      px      :     0.023880
      py      :     0.021772

 10 H s       :     0.920598  s :     0.920598
      pz      :     0.015982  p :     0.066140
      px      :     0.012794
      py      :     0.037363

 11 H s       :     0.916937  s :     0.916937
      pz      :     0.036520  p :     0.065790
      px      :     0.012549
      py      :     0.016721

 12 H s       :     0.915990  s :     0.915990
      pz      :     0.017914  p :     0.065808
      px      :     0.031706
      py      :     0.016188

 13 H s       :     0.913407  s :     0.913407
      pz      :     0.023599  p :     0.069251
      px      :     0.023881
      py      :     0.021772

 14 C s       :     2.857797  s :     2.857797
      pz      :     1.013693  p :     3.060823
      px      :     1.047098
      py      :     1.000032
      dz2     :     0.006293  d :     0.090211
      dxz     :     0.028366
      dyz     :     0.027797
      dx2y2   :     0.021322
      dxy     :     0.006433

 15 H s       :     0.915901  s :     0.915901
      pz      :     0.021832  p :     0.065854
      px      :     0.030678
      py      :     0.013345

 16 H s       :     0.922891  s :     0.922891
      pz      :     0.020246  p :     0.064698
      px      :     0.031550
      py      :     0.012901



                      *****************************
                      * MAYER POPULATION ANALYSIS *
                      *****************************

  NA   - Mulliken gross atomic population
  ZA   - Total nuclear charge
  QA   - Mulliken gross atomic charge
  VA   - Mayer's total valence
  BVA  - Mayer's bonded valence
  FA   - Mayer's free valence

  ATOM       NA         ZA         QA         VA         BVA        FA
  0 C      5.9046     6.0000     0.0954     4.0298     4.0298    -0.0000
  1 C      6.0843     6.0000    -0.0843     4.0565     4.0565    -0.0000
  2 C      6.0107     6.0000    -0.0107     3.8233     3.8233    -0.0000
  3 C      6.0107     6.0000    -0.0107     3.8233     3.8233    -0.0000
  4 C      6.0843     6.0000    -0.0843     4.0565     4.0565    -0.0000
  5 C      5.9046     6.0000     0.0954     4.0298     4.0298    -0.0000
  6 H      1.0169     1.0000    -0.0169     0.9791     0.9791     0.0000
  7 H      1.0053     1.0000    -0.0053     0.9738     0.9738    -0.0000
  8 H      1.0080     1.0000    -0.0080     0.9827     0.9827    -0.0000
  9 H      1.0164     1.0000    -0.0164     0.9857     0.9857    -0.0000
 10 H      1.0169     1.0000    -0.0169     0.9791     0.9791    -0.0000
 11 H      1.0080     1.0000    -0.0080     0.9827     0.9827    -0.0000
 12 H      1.0053     1.0000    -0.0053     0.9738     0.9738     0.0000
 13 H      1.0164     1.0000    -0.0164     0.9857     0.9857    -0.0000
 14 C      5.9052     6.0000     0.0948     3.9244     3.9244     0.0000
 15 H      0.9950     1.0000     0.0050     0.9851     0.9851     0.0000
 16 H      1.0074     1.0000    -0.0074     0.9802     0.9802     0.0000

  Mayer bond orders larger than 0.100000
B(  0-C ,  1-C ) :   1.0480 B(  0-C ,  5-C ) :   1.1033 B(  0-C ,  8-H ) :   0.9284 
B(  0-C , 12-H ) :   0.9288 B(  1-C ,  2-C ) :   0.9690 B(  1-C ,  6-H ) :   0.9506 
B(  1-C , 14-C ) :   1.0105 B(  2-C ,  3-C ) :   1.8353 B(  2-C , 13-H ) :   1.0004 
B(  3-C ,  4-C ) :   0.9690 B(  3-C ,  9-H ) :   1.0004 B(  4-C ,  5-C ) :   1.0480 
B(  4-C , 10-H ) :   0.9506 B(  4-C , 14-C ) :   1.0105 B(  5-C ,  7-H ) :   0.9288 
B(  5-C , 11-H ) :   0.9284 B( 14-C , 15-H ) :   0.9448 B( 14-C , 16-H ) :   0.9467 


-------
TIMINGS
-------

Total SCF time: 0 days 0 hours 0 min 12 sec 

Total time                  ....      12.657 sec
Sum of individual times     ....      11.896 sec  ( 94.0%)

SCF preparation             ....       0.191 sec  (  1.5%)
Fock matrix formation       ....      11.428 sec  ( 90.3%)
  Startup                   ....       0.005 sec  (  0.0% of F)
  Split-RI-J                ....       1.014 sec  (  8.9% of F)
  Chain of spheres X        ....       8.736 sec  ( 76.4% of F)
  XC integration            ....       2.224 sec  ( 19.5% of F)
    XC Preparation          ....       0.000 sec  (  0.0% of XC)
    Basis function eval.    ....       0.705 sec  ( 31.7% of XC)
    Density eval.           ....       0.461 sec  ( 20.7% of XC)
    XC-Functional eval.     ....       0.109 sec  (  4.9% of XC)
    XC-Potential eval.      ....       0.534 sec  ( 24.0% of XC)
Diagonalization             ....       0.000 sec  (  0.0%)
Density matrix formation    ....       0.035 sec  (  0.3%)
Total Energy calculation    ....       0.019 sec  (  0.1%)
Population analysis         ....       0.019 sec  (  0.1%)
Orbital Transformation      ....       0.023 sec  (  0.2%)
Orbital Orthonormalization  ....       0.000 sec  (  0.0%)
DIIS solution               ....       0.106 sec  (  0.8%)
SOSCF solution              ....       0.077 sec  (  0.6%)
Finished LeanSCF after  12.7 sec

Maximum memory used throughout the entire LEANSCF-calculation: 13.7 MB


-------------------------------------------------------------------------------
                          DFT DISPERSION CORRECTION                            
                                                                               
                              DFTD3 V3.1  Rev 1                                
                          USING Becke-Johnson damping                          
-------------------------------------------------------------------------------
The B3LYP functional is recognized
Active option DFTDOPT                   ...         4   

molecular C6(AA) [au] = 2381.814545 


            DFT-D V3
 parameters
 s6 scaling factor         :     1.0000 
 a1 scaling factor         :     0.3981 
 s8 scaling factor         :     1.9889 
 a2 scaling factor         :     4.4211 
 ad hoc parameters k1-k3   :    16.0000     1.3333    -4.0000 

 Edisp/kcal,au: -17.883595568093  -0.028499320567 
 E6   /kcal   :  -8.490490341 
 E8   /kcal   :  -9.393105227 
 % E8         :  52.523583365 

-------------------------   ----------------
Dispersion correction           -0.028499321
-------------------------   ----------------


-------------------------   --------------------
FINAL SINGLE POINT ENERGY      -272.370459475748
-------------------------   --------------------



           ************************************************************
           *        Program running with 6 parallel MPI-processes     *
           *              working on a common directory               *
           ************************************************************
------------------------------------------------------------------------------
                         ORCA SCF GRADIENT CALCULATION
------------------------------------------------------------------------------

Nuc. rep. gradient        (SHARK) ... done (  0.0 sec)
HCore & Overlap gradient  (SHARK) ... done (  0.1 sec)
Split-RIJ-J gradient      (SHARK) ... done (  0.3 sec)
done (  7.3 sec)
XC gradient                       ... done (  1.3 sec)
Dispersion correction             ... done (  0.1 sec)

-------------------
DISPERSION GRADIENT
-------------------

   1   C   :    0.000332319   -0.000256292   -0.000177227
   2   C   :   -0.000200266   -0.000195684    0.000020675
   3   C   :   -0.000295738   -0.000100380    0.000009881
   4   C   :   -0.000295735    0.000100387    0.000009881
   5   C   :   -0.000200262    0.000195689    0.000020676
   6   C   :    0.000332323    0.000256285   -0.000177227
   7   H   :   -0.000029239   -0.000401729    0.000122923
   8   H   :    0.000356459    0.000223322   -0.000048929
   9   H   :    0.000266018   -0.000244800   -0.000285444
  10   H   :   -0.000301819    0.000167314   -0.000154201
  11   H   :   -0.000029230    0.000401729    0.000122925
  12   H   :    0.000266023    0.000244795   -0.000285444
  13   H   :    0.000356454   -0.000223329   -0.000048929
  14   H   :   -0.000301823   -0.000167307   -0.000154202
  15   C   :   -0.000242439    0.000000002    0.000210150
  16   H   :   -0.000133258    0.000000001    0.000398381
  17   H   :    0.000120212   -0.000000002    0.000416110

Difference to translation invariance:
           :   -0.0000000000   -0.0000000000    0.0000000000

Difference to rotation invariance:
           :   -0.0000000000   -0.0000000000   -0.0000000000

Norm of the Dispersion gradient    ...    0.0016304668
RMS gradient                       ...    0.0002283110
MAX gradient                       ...    0.0004161097

------------------
CARTESIAN GRADIENT
------------------

   1   C   :   -0.000125937    0.000149187    0.000046506
   2   C   :    0.000133073   -0.000072283   -0.000055284
   3   C   :    0.000009507   -0.000097518   -0.000003526
   4   C   :    0.000009115    0.000097836   -0.000003336
   5   C   :    0.000132900    0.000071674   -0.000055415
   6   C   :   -0.000126059   -0.000148923    0.000046876
   7   H   :    0.000013196    0.000018985   -0.000055712
   8   H   :   -0.000012963    0.000096740   -0.000027185
   9   H   :   -0.000038259    0.000026792    0.000084803
  10   H   :   -0.000011775    0.000014748   -0.000030782
  11   H   :    0.000013309   -0.000019156   -0.000055844
  12   H   :   -0.000038190   -0.000026716    0.000084767
  13   H   :   -0.000013178   -0.000096668   -0.000027182
  14   H   :   -0.000012149   -0.000014848   -0.000030918
  15   C   :    0.000105724    0.000000094    0.000204704
  16   H   :   -0.000034428    0.000000019   -0.000069372
  17   H   :   -0.000003887    0.000000037   -0.000053101

Difference to translation invariance:
           :   -0.0000000000   -0.0000000000   -0.0000000000

Difference to rotation invariance:
           :    0.0000009276    0.0001631623   -0.0000002023

Norm of the Cartesian gradient     ...    0.0005126213
RMS gradient                       ...    0.0000717813
MAX gradient                       ...    0.0002047036

-------
TIMINGS
-------

Total SCF gradient time     ....        8.990 sec

Densities                   ....       0.001 sec  (  0.0%)
One electron gradient       ....       0.058 sec  (  0.6%)
RI-J Coulomb gradient       ....       0.344 sec  (  3.8%)
COSX gradient               ....       7.257 sec  ( 80.7%)
XC gradient                 ....       1.277 sec  ( 14.2%)

Maximum memory used throughout the entire SCFGRAD-calculation: 29.3 MB


           ************************************************************
           *        Program running with 6 parallel MPI-processes     *
           *              working on a common directory               *
           ************************************************************

------------------------------------------------------------------------------
                              ORCA PROPERTY CALCULATIONS
------------------------------------------------------------------------------

GBWName                                 ... orca.gbw
Number of atoms                         ...     17
Number of basis functions               ...    148
Max core memory                         ...   4096 MB

Electric properties:
Dipole moment                           ... YES
Quadrupole moment                       ...  NO
Static polarizability (Dipole/Dipole)   ...  NO
Static polarizability (Dipole/Quad.)    ...  NO
Static polarizability (Quad./Quad.)     ...  NO
Static polarizability (Velocity)        ...  NO
Static hyperpolarizability              ...  NO

Atomic electric properties:
Dipole moment                           ...  NO
Quadrupole moment                       ...  NO
Static polarizability                   ...  NO

Choice of electric origin               ... Center of mass
Position of electric origin             ...    -0.045715     0.000001    -0.002134

General magnetic properties:
Magnetizability                         ...  NO

EPR properties:
g-Tensor (aka g-matrix)                 ...  NO
Zero-Field splitting spin-orbit         ...  NO
Zero-field splitting spin-spin          ...  NO
Hyperfine couplings                     ...  NO (   0 nuclei)
Quadrupole couplings                    ...  NO (   0 nuclei)
Contact density                         ...  NO (   0 nuclei)

NMR properties:
Chemical shifts                         ...  NO (   0 nuclei)
Spin-rotation constants                 ...  NO (   0 nuclei)
Spin-spin couplings                     ...  NO (   0 nuclei,    0 pairs)

Choice of magnetic origin               ... GIAO
Position of magnetic origin             ...     0.000000     0.000000     0.000000

Properties with geometric perturbations:
SCF Hessian                             ...  NO
IR spectrum                             ...  NO
VCD spectrum                            ...  NO
X-ray spectroscopy properties:
SCF XES/XAS/RIXS spectra                ...  NO

SCF SOC stabilization energy            ...  NO
Diagonal Born-Oppenheimer correction    ...  NO

-------------
DIPOLE MOMENT
-------------

Method             : SCF
Type of density    : Electron Density
Multiplicity       :   1
Irrep              :   0
Energy             :  -272.3419601551800611 Eh
Basis              : AO
                                X                 Y                 Z
Electronic contribution:     -2.321210756       0.000027097      -0.147943272
Nuclear contribution   :      2.430243935      -0.000028189       0.128884646
                        -----------------------------------------
Total Dipole Moment    :      0.109033179      -0.000001092      -0.019058626
                        -----------------------------------------
Magnitude (a.u.)       :      0.110686338
Magnitude (Debye)      :      0.281342313



--------------------
Rotational spectrum 
--------------------
 
Rotational constants in cm-1:             0.130767             0.113877             0.100060 
Rotational constants in MHz :          3920.302685          3413.936449          2999.712790 

Dipole components along the rotational axes: 
x,y,z [a.u.] :    -0.109104     0.000000    -0.018649 
x,y,z [Debye]:    -0.277320     0.000001    -0.047403 

 

Dipole moment calculation done in   0.0 sec 

Maximum memory used throughout the entire PROP-calculation: 7.5 MB

--------------------------------
SUGGESTED CITATIONS FOR THIS RUN
--------------------------------

Below you find a list of papers that are relevant to this ORCA run
We neither can nor want to force you to cite these papers, but we appreciate if you do
You receive ORCA, which is the product of decades of hard work by many enthusiastic individuals, for free
The only thing we kindly ask in return is that you cite our papers,
We deeply appreciate it, if you show your appreciation for ORCA by not just citing the generic ORCA reference.

Please note that relegating all ORCA citations to the supporting information does *not* help us.
SI sections are not indexed - citations you put there will not count into any citation statistics
But we need these citations in order to attract the funding resources that allow us to do what we are doing

Therefore, if you are a happy ORCA user, please consider citing a few of the papers listed below in the main body of your paper

In addition to the list printed below, the program has created the file orca.bibtex that contains the list in bibtex format
You can import this file easily into all common literature databanks and citation aid programs


List of essential papers. We consider these as the minimum necessary citations

  1. Neese, F.
     Software update: the ORCA program system, version 6.0
     WIRES Comput. Molec. Sci. 2025 15(1), e70019
     doi.org/10.1002/wcms.7019

List of papers to cite with high priority. The work reported in these papers was absolutely
necessary for this run to complete.
Our perspective: the developers of density functionals and basis sets usually get cited in chemistry papers
Good! But without the algorithms to do something with them, the functionals or basis sets would not do anything.
Hence, in our opinion, the algorithm design and method developments papers are equally worthy of getting cited

  1. Neese, F.
     An improvement of the resolution of the identity approximation for the formation of the Coulomb matrix
     J. Comp. Chem. 2003 24(14), 1740-1747
     doi.org/10.1002/jcc.10318
  2. Neese, F.; Wennmohs, F.; Hansen, A.; Becker, U.
     Efficient, approximate and parallel Hartree-Fock and hybrid DFT calculations. A 'chain-of-spheres' algorithm for the Hartree-Fock exchange
     Chem. Phys. 2009 356(1-3), 98-109
     doi.org/10.1016/j.chemphys.2008.10.036
  3. Grimme, S.; Antony, J.; Ehrlich, S.; Krieg, H.
     A consistent and accurate ab initio parametrization of density functional dispersion correction (DFT-D) for the 94 elements H-Pu
     J. Chem. Phys. 2010 132 , 154104
     doi.org/10.1063/1.3382344
  4. Grimme, S.; Ehrlich, S.; Goerigk, L.
     Effect of the damping function in dispersion corrected density functional theory
     J. Comput. Chem. 2011 32(7), 1456-1465
     doi.org/10.1002/jcc.21759
  5. Helmich-Paris, B.; de Souza, B.; Neese, F.; Izsák, R.
     An improved chain of spheres for exchange algorithm
     J. Chem. Phys. 2021 155(10), 104109
     doi.org/10.1063/5.0058766
  6. Neese, F.
     The SHARK Integral Generation and Digestion System
     J. Comp. Chem. 2022 44(3), 381
     doi.org/10.1002/jcc.26942

List of suggested additional citations. These are papers that are important in the 'surrounding' of 
of this run, or papers that preceded the highly important papers. If you like your results we are grateful for a citation.

  1. Izsak, R.; Neese, F.
     An overlap fitted chain of spheres exchange method
     J. Chem. Phys. 2011 135 , 144105
     doi.org/10.1063/1.3646921
  2. Izsak, R.; Hansen, A.; Neese, F.
     The resolution of identity and chain of spheres approximations for the LPNO-CCSD singles Fock term
     Molec. Phys. 2012 110 , 2413-2417
     doi.org/10.1080/00268976.2012.687466
  3. Neese, F.
     The ORCA program system
     WIRES Comput. Molec. Sci. 2012 2(1), 73-78
     doi.org/10.1002/wcms.81
  4. Izsak, R.; Neese, F.; Klopper, W.
     Robust fitting techniques in the chain of spheres approximation to the Fock exchange: The role of the complementary space
     J. Chem. Phys. 2013 139 , 
     doi.org/10.1063/1.4819264
  5. Neese, F.
     Software update: the ORCA program system, version 4.0
     WIRES Comput. Molec. Sci. 2018 8(1), 1-6
     doi.org/10.1002/wcms.1327
  6. Neese, F.; Wennmohs, F.; Becker, U.; Riplinger, C.
     The ORCA quantum chemistry program package
     J. Chem. Phys. 2020 152(22), 224108
     doi.org/10.1063/5.0004608
  7. Neese, F.
     Software update: The ORCA program system—Version 5.0
     WIRES Comput. Molec. Sci. 2022 12(1), e1606
     doi.org/10.1002/wcms.1606

List of optional additional citations

  1. Neese, F.
     Approximate second-order SCF convergence for spin unrestricted wavefunctions
     Chem. Phys. Lett. 2000 325(1-3), 93-98
     doi.org/10.1016/s0009-2614(00)00662-x

Timings for individual modules:

Sum of individual times          ...       25.110 sec (=   0.419 min)
Startup calculation              ...        1.488 sec (=   0.025 min)   5.9 %
SCF iterations                   ...       13.704 sec (=   0.228 min)  54.6 %
Property calculations            ...        0.463 sec (=   0.008 min)   1.8 %
SCF Gradient evaluation          ...        9.454 sec (=   0.158 min)  37.7 %
                             ****ORCA TERMINATED NORMALLY****
TOTAL RUN TIME: 0 days 0 hours 0 minutes 25 seconds 670 msec
