
                                 *****************
                                 * O   R   C   A *
                                 *****************

                                            #,                                       
                                            ###                                      
                                            ####                                     
                                            #####                                    
                                            ######                                   
                                           ########,                                 
                                     ,,################,,,,,                         
                               ,,#################################,,                 
                          ,,##########################################,,             
                       ,#########################################, ''#####,          
                    ,#############################################,,   '####,        
                  ,##################################################,,,,####,       
                ,###########''''           ''''###############################       
              ,#####''   ,,,,##########,,,,          '''####'''          '####       
            ,##' ,,,,###########################,,,                        '##       
           ' ,,###''''                  '''############,,,                           
         ,,##''                                '''############,,,,        ,,,,,,###''
      ,#''                                            '''#######################'''  
     '                                                          ''''####''''         
             ,#######,   #######,   ,#######,      ##                                
            ,#'     '#,  ##    ##  ,#'     '#,    #''#        ,####,    ,#,          
            ##       ##  ##   ,#'  ##            #'  '#       #'       ,# #          
            ##       ##  #######   ##           ,######,      #####,      #          
            '#,     ,#'  ##    ##  '#,     ,#' ,#      #,     #,   #      #          
             '#######'   ##     ##  '#######'  #'      '#     '####' #    #          



                #########################################################
                #                        -***-                          #
                #          Department of theory and spectroscopy        #
                #                                                       #
                #                      Frank Neese                      #
                #                                                       #
                #     Directorship, Architecture, Infrastructure        #
                #                    SHARK, DRIVERS                     #
                #        Core code/Algorithms in most modules           #
                #                                                       #
                #        Max Planck Institute fuer Kohlenforschung      #
                #                Kaiser Wilhelm Platz 1                 #
                #                 D-45470 Muelheim/Ruhr                 #
                #                      Germany                          #
                #                                                       #
                #                  All rights reserved                  #
                #                        -***-                          #
                #########################################################


                         Program Version 6.1.0  -  RELEASE   -
                                (GIT: $679e74b$)
                          ($2025-06-10 18:02:51 +0200$)


 With contributions from (in alphabetic order):
[Max-Planck-Institut fuer Kohlenforschung]                               
  Daniel Aravena         : Magnetic Suceptibility                        
  Michael Atanasov       : Ab Initio Ligand Field Theory (pilot matlab implementation)
  Alexander A. Auer      : GIAO ZORA, VPT2 properties, NMR spectrum      
  Ute Becker             : All parallelization in ORCA, NUMFREQ, NUMCALC 
  Giovanni Bistoni       : ED, misc. LED, open-shell LED, HFLD           
  Dmytro Bykov           : pre 5.0 version of the SCF Hessian            
  Marcos Casanova-Páez   : Triplet and SCS-CIS(D). UHF-(DLPNO)-IP/EA/STEOM-CCSD. UHF-CVS-IP/STEOM-CCSD   
  Vijay G. Chilkuri      : MRCI spin determinant printing, contributions to CSF-ICE 
  Pauline Colinet        : FMM embedding                                 
  Dipayan Datta          : RHF DLPNO-CCSD density                        
  Achintya Kumar Dutta   : EOM-CC, STEOM-CC                              
  Nicolas Foglia         : Exact transition moments, OPA infrastructure, MCD improvements    
  Dmitry Ganyushin       : Spin-Orbit,Spin-Spin,Magnetic field MRCI      
  Miquel Garcia-Rates    : C-PCM and meta-GGA Hessian, CCSD/C-PCM, Gaussian charge scheme 
  Tiago L. C. Gouveia    : GS-ROHF, GS-ROCIS                             
  Yang Guo               : DLPNO-NEVPT2, F12-NEVPT2, CIM, IAO-localization        
  Andreas Hansen         : Spin unrestricted coupled pair/coupled cluster methods 
  Ingolf Harden          : AUTO-CI MPn and infrastructure                
  Benjamin Helmich-Paris : MC-RPA, TRAH-(SCF,CASSCF), AVAS, COSX integrals, SCF dyn. polar., MC-PDFT, srDFT 
  Lee Huntington         : MR-EOM, pCC                                   
  Robert Izsak           : Overlap fitted RIJCOSX, COSX-SCS-MP3, EOM     
  Riya Kayal             : Wick's Theorem for AUTO-CI, AUTO-CI UHF-CCSDT 
  Emily Kempfer          : AUTO-CI RHF CISDT and CCSDT, approximate NEVPT4
  Christian Kollmar      : KDIIS, OOCD, Brueckner-CCSD(T), CCSD density, CASPT2, CASPT2-K, improved NEVPT2 
  Axel Koslowski         : Symmetry handling                             
  Simone Kossmann        : meta-GGA functionals, TD-DFT gradient, OOMP2, (MP2 Hessian; deprecated post 5.0) 
  Lucas Lang             : DCDCAS, Hyperfine gauge corrections, ICE-SOC+SSC
  Marvin Lechner         : AUTO-CI (C++ implementation), FIC-MRCC        
  Spencer Leger          : CASSCF response                               
  Dagmar Lenk            : GEPOL surface, SMD, ORCA-2-JSON               
  Dimitrios Liakos       : Extrapolation schemes; Compound Job, Property file
  Dimitrios Manganas     : Further ROCIS development; embedding schemes. LFT, Crystal Embedding 
  Dimitrios Pantazis     : SARC Basis sets                               
  Anastasios Papadopoulos: AUTO-CI, single reference methods and gradients 
  Taras Petrenko         : pre 6.0 DFT Hessian and TD-DFT gradient,  ECA, NRVS 
  Petra Pikulova         : Analytic Raman intensities                    
  Peter Pinski           : DLPNO-MP2, DLPNO-MP2 Gradient                 
  Shashank Vittal Rao    : ES-AILFT, MagRelax                            
  Christoph Reimann      : Effective Core Potentials                     
  Marius Retegan         : Local ZFS, SOC                                
  Christoph Riplinger    : Optimizer, TS searches, QM/MM, DLPNO-CCSD(T), (RO)-DLPNO pert. Triples 
  Michael Roemelt        : Original ROCIS implementation, recursive CI coupling coefficients
  Masaaki Saitow         : Open-shell DLPNO-CCSD energy and density      
  Barbara Sandhoefer     : DKH picture change effects                    
  Yorick L. A. Schmerwitz: GMF and freeze-and-release deltaSCF, NEB S-IDPP initial path                    
  Kantharuban Sivalingam : CASSCF convergence/infrastructure, NEVPT2, NEVPT3, NEVPT4(SD), FIC-MRCI and CEPA variants
  Bernardo de Souza      : ESD, SOC TD-DFT                               
  Georgi L. Stoychev     : AutoAux, RI-MP2 NMR, DLPNO-MP2 response, X2C  
  Van Anh Tran           : RI-MP2 g-tensors                              
  Willem Van den Heuvel  : Paramagnetic NMR                              
  Zikuan Wang            : NOTCH, Electric field optimization            
  Frank Wennmohs         : Technical directorship and infrastructure     
  Hang Xu                : AUTO-CI-Response properties                   
                                                                         
[FACCTs GmbH]                                                            
  Markus Bursch, Nicolas Foglia, Miquel Garcia-Rates, Ingolf Harden, Hagen Neugebauer, Anastasios Papadopoulos, 
  Christoph Riplinger, Bernardo de Souza, Georgi L. Stoychev                                                    
                                                                 
  APM, various basis sets, CI-OPT, improved COSX, DLPNO-Multilevel,           
  DOCKER, DRACO, updates on ESD, Fragmentator, GOAT, IRC, LR-CPCM, L-BFGS, MBIS, meta-GGA TD-DFT gradient, ML-optimized integration grids, 
  MM, NACMEs, nearIR, NEB, NEB-TS, NL-DFT gradient (VV10), 2- and 3-layer-ONIOM, interface openCOSMO-RS, QMMM,   
  Crystal-QMMM, RESP, rigid body optimization, SF, symmetry and pop. for TD-DFT, various functionals, SOLVATOR                                   
                                                                         
[Other institutions]                                                     
  V. Asgeirsson          : NEB                                           
  Christoph Bannwarth    : sTDA-DFT, sTD-DFT, PBEh-3c, B97-3c, D3        
  Giovanni Bistoni       : ETS/NOCV, ADLD/ADEX, COVALED                  
  Martin Brehm           : Molecular dynamics                            
  Ronald Cardenas        : ETS/NOCV                                      
  Martina Colucci        : COVALED                                       
  Sebastian Ehlert       : rSCAN, r2SCAN, r2SCAN-3c, D4, dhf basis sets  
  Marvin Friede          : D4 for Fr, Ra, Ac-Lr                          
  Lars Goerigk           : TD-DFT with DH, B97 family of functionals     
  Stefan Grimme          : VdW corrections, initial TS optimization, DFT functionals, gCP, sTDA/sTD-DF 
  Waldemar Hujo          : DFT-NL                                        
  H. Jonsson             : NEB                                           
  Holger Kruse           : gCP                                           
  Marcel Mueller         : wB97X-3c, vDZP basis set                      
  Hagen Neugebauer       : wr2SCAN, Native XTB                           
  Gianluca Regni         : ADLD/ADEX                                     
  Tobias Risthaus        : pre 6.0 range-separated hybrid DFT and stability analysis
  Lukas Wittmann         : regularized MP2, r2SCAN double-hybrids, wr2SCAN        
                                                                         
We gratefully acknowledge several colleagues who have allowed us to      
interface, adapt or use parts of their codes:                            
  Ed Valeev, F. Pavosevic, A. Kumar             : LibInt (2-el integral package), F12 methods 
  Garnet Chan, S. Sharma, J. Yang, R. Olivares  : DMRG                   
  Ulf Ekstrom                                   : XCFun DFT Library      
  Mihaly Kallay                                 : mrcc  (arbitrary order and MRCC methods)
  Frank Weinhold                                : gennbo (NPA and NBO analysis)           
  Simon Mueller                                 : openCOSMO-RS                            
  Christopher J. Cramer and Donald G. Truhlar   : smd solvation model                     
  S Lehtola, MJT Oliveira, MAL Marques          : LibXC Library                           
  Liviu Ungur et al                             : ANISO software                          


 Your calculation uses the libint2 library for the computation of 2-el integrals
 For citations please refer to: http://libint.valeyev.net

 Your ORCA version has been built with support for libXC version: 7.0.0
 For citations please refer to: https://libxc.gitlab.io

 This ORCA versions uses:
   CBLAS   interface :  Fast vector & matrix operations
   LAPACKE interface :  Fast linear algebra routines
   SCALAPACK package :  Parallel linear algebra routines
   Shared memory     :  Shared parallel matrices
   BLAS/LAPACK       :  OpenBLAS 0.3.29  USE64BITINT DYNAMIC_ARCH NO_AFFINITY Zen SINGLE_THREADED
        Core in use  :  Zen
   Copyright (c) 2011-2014, The OpenBLAS Project


  ***********************************
  * Starting time: Wed Sep 10 13:37:11 2025
  * Host name:     wyk-Server
  * Process ID:    2303989
  * Working dir.:  /home/wyk/Documents/code/openQDC/MGMR/singlepointcalc/94/react
  ***********************************

Your calculation utilizes the atom-pairwise dispersion correction
with the Becke-Johnson damping scheme (D3BJ)


Warning: RI is on but no J-basis has been assigned. Assigning Def2/J (nothing to worry about!)
================================================================================

----- Orbital basis set information -----
Your calculation utilizes the basis: def2-SVP
   F. Weigend and R. Ahlrichs, Phys. Chem. Chem. Phys. 7, 3297 (2005).

----- AuxJ basis set information -----
Your calculation utilizes the auxiliary basis: def2/J
   H-Rn: F. Weigend, Phys. Chem. Chem. Phys. 8, 1057 (2006).
   Fr-Lr: K. Eichkorn, F. Weigend, O. Treutler, R. Ahlrichs; Theor. Chem. Acc. 97, 119 (1997).

================================================================================
                                        WARNINGS
                       Please study these warnings very carefully!
================================================================================


================================================================================
                                       INPUT FILE
================================================================================
NAME = orca.inp
|  1> ! B3LYP def2-SVP d3 EnGrad 
|  2> %pal nprocs 6 end 
|  3> *xyz 0 1 
|  4> C   3.41410323058596 -0.03355127741755 0.13870972272142
|  5> C   1.91194247160794 -0.00048699313277 0.08397637769584
|  6> H   3.86678089231659 0.51070026080397 -0.6994213919907
|  7> H   3.74196425578304 -1.08425076126892 0.12164672917592
|  8> H   3.74243017903976 0.40175538195419 1.09418104074609
|  9> O   1.48596085848024 0.62732940885401 -1.03011053171644
| 10> O   0.06198280710579 0.66472265280481 -1.12261884575339
| 11> H   -0.2271648573605 0.17263812219285 -0.31108398271853
| 12> O   1.14836248060344 -0.46642351251815 0.89661697753285
| 13> C   -2.16750086777116 0.06083770564972 0.98956293314091
| 14> C   -2.14770491697207 -1.06433837847555 0.25522301714537
| 15> C   -2.79459638320733 -1.29969532099584 -1.07815687340388
| 16> H   -1.57354212658582 -1.90789837530333 0.65687943238608
| 17> H   -3.42851355230161 -0.46164339513572 -1.4010944880633
| 18> H   -3.41583556779309 -2.21165597460791 -1.05933094875829
| 19> H   -2.02558514577507 -1.4537818268942 -1.85561378014588
| 20> C   -2.83971144897479 1.35985410822379 0.65541213382257
| 21> H   -1.60591405172918 0.04847273127105 1.9310797666017
| 22> H   -3.45392210169034 1.3027595460032 -0.2544421780966
| 23> H   -2.08644673807659 2.15243807401192 0.49940996649396
| 24> H   -3.48611941728509 1.6936908239804 1.48514692318428
| 25> *
| 26> 
| 27>                          ****END OF INPUT****
================================================================================

                     *******************************
                     * Energy+Gradient Calculation *
                     *******************************

---------------------------------
CARTESIAN COORDINATES (ANGSTROEM)
---------------------------------
  C      3.414103   -0.033551    0.138710
  C      1.911942   -0.000487    0.083976
  H      3.866781    0.510700   -0.699421
  H      3.741964   -1.084251    0.121647
  H      3.742430    0.401755    1.094181
  O      1.485961    0.627329   -1.030111
  O      0.061983    0.664723   -1.122619
  H     -0.227165    0.172638   -0.311084
  O      1.148362   -0.466424    0.896617
  C     -2.167501    0.060838    0.989563
  C     -2.147705   -1.064338    0.255223
  C     -2.794596   -1.299695   -1.078157
  H     -1.573542   -1.907898    0.656879
  H     -3.428514   -0.461643   -1.401094
  H     -3.415836   -2.211656   -1.059331
  H     -2.025585   -1.453782   -1.855614
  C     -2.839711    1.359854    0.655412
  H     -1.605914    0.048473    1.931080
  H     -3.453922    1.302760   -0.254442
  H     -2.086447    2.152438    0.499410
  H     -3.486119    1.693691    1.485147

----------------------------
CARTESIAN COORDINATES (A.U.)
----------------------------
  NO LB      ZA    FRAG     MASS         X           Y           Z
   0 C     6.0000    0    12.011    6.451720   -0.063403    0.262123
   1 C     6.0000    0    12.011    3.613048   -0.000920    0.158692
   2 H     1.0000    0     1.008    7.307157    0.965084   -1.321715
   3 H     1.0000    0     1.008    7.071288   -2.048937    0.229879
   4 H     1.0000    0     1.008    7.072168    0.759208    2.067703
   5 O     8.0000    0    15.999    2.808059    1.185481   -1.946627
   6 O     8.0000    0    15.999    0.117131    1.256144   -2.121442
   7 H     1.0000    0     1.008   -0.429279    0.326239   -0.587864
   8 O     8.0000    0    15.999    2.170091   -0.881413    1.694361
   9 C     6.0000    0    12.011   -4.095983    0.114967    1.870003
  10 C     6.0000    0    12.011   -4.058574   -2.011308    0.482302
  11 C     6.0000    0    12.011   -5.281022   -2.456068   -2.037421
  12 H     1.0000    0     1.008   -2.973564   -3.605405    1.241322
  13 H     1.0000    0     1.008   -6.478952   -0.872380   -2.647685
  14 H     1.0000    0     1.008   -6.454994   -4.179424   -2.001845
  15 H     1.0000    0     1.008   -3.827801   -2.747250   -3.506602
  16 C     6.0000    0    12.011   -5.366277    2.569752    1.238549
  17 H     1.0000    0     1.008   -3.034738    0.091600    3.649212
  18 H     1.0000    0     1.008   -6.526967    2.461859   -0.480826
  19 H     1.0000    0     1.008   -3.942813    4.067518    0.943748
  20 H     1.0000    0     1.008   -6.587811    3.200612    2.806521

--------------------------------
INTERNAL COORDINATES (ANGSTROEM)
--------------------------------
 C      0   0   0     0.000000000000     0.00000000     0.00000000
 C      1   0   0     1.503521177691     0.00000000     0.00000000
 H      1   2   0     1.097082753367   111.93321273     0.00000000
 H      1   2   3     1.100796712821   108.54179900   238.65002612
 H      1   2   3     1.100098137596   108.72934430   121.88342811
 O      2   1   3     1.347888500971   110.85979028     3.58880044
 O      6   2   1     1.427469626176   112.39744981   179.36370618
 H      7   6   2     0.992140308149   102.98665593   358.53601111
 O      2   1   3     1.208526370115   126.74814191   183.09365098
 C      8   7   6     2.338607612698   136.09063966   158.43405867
 C     10   8   7     1.343751544066    73.97078628   104.14938892
 C     11  10   8     1.500587682210   127.63081920   267.01943677
 H     11  10   8     1.096624025825   116.85047888    85.37039623
 H     12  11  10     1.099304648709   112.95780422   353.43860649
 H     12  11  10     1.103614413480   110.92315999   231.91754952
 H     12  11  10     1.104336985000   110.31909547   113.80789703
 C     10   8   7     1.500322444118   101.91619005   338.14161984
 H     10   8   7     1.096351491190    93.04722227   221.27776481
 H     17  10   8     1.099249463890   112.93720207    85.24289023
 H     17  10   8     1.104506108503   110.31632978   324.86501564
 H     17  10   8     1.103517120374   110.91105552   206.77166657

---------------------------
INTERNAL COORDINATES (A.U.)
---------------------------
 C      0   0   0     0.000000000000     0.00000000     0.00000000
 C      1   0   0     2.841243262387     0.00000000     0.00000000
 H      1   2   0     2.073185950112   111.93321273     0.00000000
 H      1   2   3     2.080204316352   108.54179900   238.65002612
 H      1   2   3     2.078884200493   108.72934430   121.88342811
 O      2   1   3     2.547140125897   110.85979028     3.58880044
 O      6   2   1     2.697526657964   112.39744981   179.36370618
 H      7   6   2     1.874873468827   102.98665593   358.53601111
 O      2   1   3     2.283783865139   126.74814191   183.09365098
 C      8   7   6     4.419327922703   136.09063966   158.43405867
 C     10   8   7     2.539322410319    73.97078628   104.14938892
 C     11  10   8     2.835699759313   127.63081920   267.01943677
 H     11  10   8     2.072319080687   116.85047888    85.37039623
 H     12  11  10     2.077384723806   112.95780422   353.43860649
 H     12  11  10     2.085528998925   110.92315999   231.91754952
 H     12  11  10     2.086894461209   110.31909547   113.80789703
 C     10   8   7     2.835198531958   101.91619005   338.14161984
 H     10   8   7     2.071804064864    93.04722227   221.27776481
 H     17  10   8     2.077280439612   112.93720207    85.24289023
 H     17  10   8     2.087214058314   110.31632978   324.86501564
 H     17  10   8     2.085345141601   110.91105552   206.77166657

---------------------
BASIS SET INFORMATION
---------------------
There are 3 groups of distinct atoms

 Group   1 Type C   : 7s4p1d contracted to 3s2p1d pattern {511/31/1}
 Group   2 Type H   : 4s1p contracted to 2s1p pattern {31/1}
 Group   3 Type O   : 7s4p1d contracted to 3s2p1d pattern {511/31/1}

Atom   0C    basis set group =>   1
Atom   1C    basis set group =>   1
Atom   2H    basis set group =>   2
Atom   3H    basis set group =>   2
Atom   4H    basis set group =>   2
Atom   5O    basis set group =>   3
Atom   6O    basis set group =>   3
Atom   7H    basis set group =>   2
Atom   8O    basis set group =>   3
Atom   9C    basis set group =>   1
Atom  10C    basis set group =>   1
Atom  11C    basis set group =>   1
Atom  12H    basis set group =>   2
Atom  13H    basis set group =>   2
Atom  14H    basis set group =>   2
Atom  15H    basis set group =>   2
Atom  16C    basis set group =>   1
Atom  17H    basis set group =>   2
Atom  18H    basis set group =>   2
Atom  19H    basis set group =>   2
Atom  20H    basis set group =>   2
---------------------------------
AUXILIARY/J BASIS SET INFORMATION
---------------------------------
There are 3 groups of distinct atoms

 Group   1 Type C   : 12s5p4d2f1g contracted to 6s4p3d1f1g pattern {711111/2111/211/2/1}
 Group   2 Type H   : 5s2p1d contracted to 3s1p1d pattern {311/2/1}
 Group   3 Type O   : 12s5p4d2f1g contracted to 6s4p3d1f1g pattern {711111/2111/211/2/1}

Atom   0C    basis set group =>   1
Atom   1C    basis set group =>   1
Atom   2H    basis set group =>   2
Atom   3H    basis set group =>   2
Atom   4H    basis set group =>   2
Atom   5O    basis set group =>   3
Atom   6O    basis set group =>   3
Atom   7H    basis set group =>   2
Atom   8O    basis set group =>   3
Atom   9C    basis set group =>   1
Atom  10C    basis set group =>   1
Atom  11C    basis set group =>   1
Atom  12H    basis set group =>   2
Atom  13H    basis set group =>   2
Atom  14H    basis set group =>   2
Atom  15H    basis set group =>   2
Atom  16C    basis set group =>   1
Atom  17H    basis set group =>   2
Atom  18H    basis set group =>   2
Atom  19H    basis set group =>   2
Atom  20H    basis set group =>   2


           ************************************************************
           *        Program running with 6 parallel MPI-processes     *
           *              working on a common directory               *
           ************************************************************
------------------------------------------------------------------------------
                             ORCA STARTUP CALCULATIONS
                           -- RI-GTO INTEGRALS CHOSEN --
------------------------------------------------------------------------------
------------------------------------------------------------------------------
                   ___                                                        
                  /   \      - P O W E R E D   B Y -                         
                 /     \                                                     
                 |  |  |   _    _      __       _____    __    __             
                 |  |  |  | |  | |    /  \     |  _  \  |  |  /  |          
                  \  \/   | |  | |   /    \    | | | |  |  | /  /          
                 / \  \   | |__| |  /  /\  \   | |_| |  |  |/  /          
                |  |  |   |  __  | /  /__\  \  |    /   |      \           
                |  |  |   | |  | | |   __   |  |    \   |  |\   \          
                \     /   | |  | | |  |  |  |  | |\  \  |  | \   \       
                 \___/    |_|  |_| |__|  |__|  |_| \__\ |__|  \__/        
                                                                              
                      - O R C A' S   B I G   F R I E N D -                    
                                      &                                       
                       - I N T E G R A L  F E E D E R -                       
                                                                              
 v1 FN, 2020, v2 2021, v3 2022-2024                                           
------------------------------------------------------------------------------


----------------------
SHARK INTEGRAL PACKAGE
----------------------

Number of atoms                             ...     21
Number of basis functions                   ...    186
Number of shells                            ...     90
Maximum angular momentum                    ...      2
Integral batch strategy                     ... SHARK/LIBINT Hybrid
RI-J (if used) integral strategy            ... SPLIT-RIJ (Revised 2003 algorithm where possible)
Printlevel                                  ...      1
Contraction scheme used                     ... SEGMENTED contraction
Prescreening option                         ... SCHWARTZ
   Thresh                                   ... 2.500e-11
   Tcut                                     ... 2.500e-12
   Tpresel                                  ... 2.500e-12 
Coulomb Range Separation                    ... NOT USED
Exchange Range Separation                   ... NOT USED
Multipole approximations                    ... NOT USED
Finite Nucleus Model                        ... NOT USED
CABS basis                                  ... NOT available
Auxiliary Coulomb fitting basis             ... AVAILABLE
   # of basis functions in Aux-J            ...    573
   # of shells in Aux-J                     ...    195
   Maximum angular momentum in Aux-J        ...      4
Auxiliary J/K fitting basis                 ... NOT available
Auxiliary Correlation fitting basis         ... NOT available
Auxiliary 'external' fitting basis          ... NOT available

Checking pre-screening integrals            ... done (  0.0 sec) Dimension = 90
   => SHARK Basis and OBASIS are compatible. Storing Pre-screening
Shell pair information
Shell pair cut-off parameter TPreSel        ...   2.5e-12
Total number of shell pairs                 ...      4095
Shell pairs after pre-screening             ...      3537
Total number of primitive shell pairs       ...     14349
Primitive shell pairs kept                  ...      8842
          la=0 lb=0:   1180 shell pairs
          la=1 lb=0:   1324 shell pairs
          la=1 lb=1:    397 shell pairs
          la=2 lb=0:    379 shell pairs
          la=2 lb=1:    222 shell pairs
          la=2 lb=2:     35 shell pairs

Checking whether 4 symmetric matrices of dimension 186 fit in memory
:Max Core in MB      =   4096.00
 MB in use           =      7.80
 MB left             =   4088.20
 MB needed           =      0.53
 Data fit in memory  = YES
Calculating RI/J V-Matrix + Cholesky decomp.... done (  0.0 sec)
Calculating Nuclear repulsion               ... done (  0.0 sec) ENN=    455.553605478050 Eh

Diagonalization of the overlap matrix:
Smallest eigenvalue                        ... 1.643e-03
Time for diagonalization                   ...    0.004 sec
Threshold for overlap eigenvalues          ... 1.000e-07
Number of eigenvalues below threshold      ... 0
Time for construction of square roots      ...    0.002 sec
Total time needed                          ...    0.007 sec

-------------------
DFT GRID GENERATION
-------------------

General Integration Accuracy     IntAcc      ... 4.388
Radial Grid Type                 RadialGrid  ... OptM3 with GC (2021)
Angular Grid (max. ang.)         AngularGrid ... 4 (Lebedev-302)
Angular grid pruning method      GridPruning ... 4 (adaptive)
Weight generation scheme         WeightScheme... mBecke (2022)
Basis function cutoff            BFCut       ... 1.0000e-11
Integration weight cutoff        WCut        ... 1.0000e-14
Partially contracted basis set               ... off
Rotationally invariant grid construction     ... off
Angular grids for H and He will be reduced by one unit

Total number of grid points                  ...    93099
Total number of batches                      ...     1462
Average number of points per batch           ...       63
Average number of grid points per atom       ...     4433

--------------------
COSX GRID GENERATION
--------------------

GRIDX 1
-------
General Integration Accuracy     IntAcc      ... 3.816
Radial Grid Type                 RadialGrid  ... OptM3 with GC (2021)
Angular Grid (max. ang.)         AngularGrid ... 1 (Lebedev-50)
Angular grid pruning method      GridPruning ... 4 (adaptive)
Weight generation scheme         WeightScheme... mBecke (2022)
Basis function cutoff            BFCut       ... 1.0000e-11
Integration weight cutoff        WCut        ... 1.0000e-14
Partially contracted basis set               ... on
Rotationally invariant grid construction     ... off
Angular grids for H and He will be reduced by one unit

Total number of grid points                  ...    11932
Total number of batches                      ...      105
Average number of points per batch           ...      113
Average number of grid points per atom       ...      568
UseSFitting                                  ... on

GRIDX 2
-------
General Integration Accuracy     IntAcc      ... 4.020
Radial Grid Type                 RadialGrid  ... OptM3 with GC (2021)
Angular Grid (max. ang.)         AngularGrid ... 2 (Lebedev-110)
Angular grid pruning method      GridPruning ... 4 (adaptive)
Weight generation scheme         WeightScheme... mBecke (2022)
Basis function cutoff            BFCut       ... 1.0000e-11
Integration weight cutoff        WCut        ... 1.0000e-14
Partially contracted basis set               ... on
Rotationally invariant grid construction     ... off
Angular grids for H and He will be reduced by one unit

Total number of grid points                  ...    25365
Total number of batches                      ...      210
Average number of points per batch           ...      120
Average number of grid points per atom       ...     1208
UseSFitting                                  ... on

GRIDX 3
-------
General Integration Accuracy     IntAcc      ... 4.338
Radial Grid Type                 RadialGrid  ... OptM3 with GC (2021)
Angular Grid (max. ang.)         AngularGrid ... 3 (Lebedev-194)
Angular grid pruning method      GridPruning ... 4 (adaptive)
Weight generation scheme         WeightScheme... mBecke (2022)
Basis function cutoff            BFCut       ... 1.0000e-11
Integration weight cutoff        WCut        ... 1.0000e-14
Partially contracted basis set               ... on
Rotationally invariant grid construction     ... off
Angular grids for H and He will be reduced by one unit

Total number of grid points                  ...    55541
Total number of batches                      ...      448
Average number of points per batch           ...      123
Average number of grid points per atom       ...     2645
UseSFitting                                  ... on
Grids setup in   1.3 sec
Initializing property integral containers    ... done (  0.0 sec)

SHARK setup successfully completed in   1.5 seconds

Maximum memory used throughout the entire STARTUP-calculation: 25.6 MB


           ************************************************************
           *        Program running with 6 parallel MPI-processes     *
           *              working on a common directory               *
           ************************************************************
-------------------------------------------------------------------------------
                                 ORCA GUESS
                   Start orbitals & Density for SCF / CASSCF
-------------------------------------------------------------------------------

------------
SCF SETTINGS
------------
Hamiltonian:
 Density Functional     Method          .... DFT(GTOs)
 Exchange Functional    Exchange        .... B88
   X-Alpha parameter    XAlpha          ....  0.666667
   Becke's b parameter  XBeta           ....  0.004200
 Correlation Functional Correlation     .... LYP
 LDA part of GGA corr.  LDAOpt          .... VWN-5
 Gradients option       PostSCFGGA      .... off
 Hybrid DFT is turned on
   Fraction HF Exchange ScalHFX         ....  0.200000
   Scaling of DF-GGA-X  ScalDFX         ....  0.720000
   Scaling of DF-GGA-C  ScalDFC         ....  0.810000
   Scaling of DF-LDA-C  ScalLDAC        ....  1.000000
   Perturbative correction              ....  0.000000
   NL short-range parameter             ....  4.800000
 RI-approximation to the Coulomb term is turned on
   Number of AuxJ basis functions       .... 573
   RIJ-COSX (HFX calculated with COS-X)).... on


General Settings:
 Integral files         IntName         .... orca
 Hartree-Fock type      HFTyp           .... RHF
 Total Charge           Charge          ....    0
 Multiplicity           Mult            ....    1
 Number of Electrons    NEL             ....   72
 Basis Dimension        Dim             ....  186
 Nuclear Repulsion      ENuc            ....    455.5536054780 Eh

Convergence Acceleration:
 AO-DIIS                CNVDIIS         .... on
   Start iteration      DIISMaxIt       ....    12
   Startup error        DIISStart       ....  0.200000
   # of expansion vecs  DIISMaxEq       ....     5
   Bias factor          DIISBfac        ....   1.050
   Max. coefficient     DIISMaxC        ....  10.000
 MO-DIIS                CNVKDIIS        .... off
 Trust-Rad. Augm. Hess. CNVTRAH         .... auto
   Auto Start mean grad. ratio tolernc. ....  1.125000
   Auto Start start iteration           ....    50
   Auto Start num. interpolation iter.  ....    10
   Max. Number of Micro iterations      ....    24
   Max. Number of Macro iterations      .... Maxiter - #DIIS iter
   Number of Davidson start vectors     ....     2
   Converg. threshold    (grad. norm)   ....   1.000e-05
   Grad. Scal. Fac. for Micro threshold ....   0.100
   Minimum threshold for Micro iter.    ....   1.000e-02
   NR start threshold (gradient norm)   ....   1.000e-04
   Initial trust radius                 ....   0.400
   Minimum AH scaling param. (alpha)    ....   1.000
   Maximum AH scaling param. (alpha)    .... 1000.000
   Quad. conv. algorithm                .... NR
   White noise on init. David. guess    .... on
   Maximum white noise                  ....   0.010
   Pseudo random numbers                .... off
   Inactive MOs                         .... canonical
   Orbital update algorithm             .... Taylor
   Preconditioner                       .... Diag
   Full preconditioner red. dimension   ....   250
 SOSCF                 CNVSOSCF           .... on
   Start iteration     SOSCFMaxIt         ....   150
   Startup grad/error  SOSCFStart         ....  0.003300
   Hessian update      SOSCFHessUp        .... L-BFGS
   Autom. constraints  SOSCFAutoConstrain .... off
 Level Shifting         CNVShift        .... on
   Level shift para.    LevelShift      ....    0.2500
   Turn off err/grad.   ShiftErr        ....    0.0010
 Zerner damping         CNVZerner       .... off
 Static damping         CNVDamp         .... on
   Fraction old density DampFac         ....    0.7000
   Max. Damping (<1)    DampMax         ....    0.9800
   Min. Damping (>=0)   DampMin         ....    0.0000
   Turn off err/grad.   DampErr         ....    0.1000

SCF Procedure:
 Maximum # iterations   MaxIter         ....   125
 SCF integral mode      SCFMode         .... Direct
   Integral package                     .... SHARK and LIBINT hybrid scheme
 Reset frequency        DirectResetFreq ....    20
 Integral Threshold     Thresh          ....  2.500e-11 Eh
 Primitive CutOff       TCut            ....  2.500e-12 Eh

Convergence Tolerance:
 Convergence Check Mode ConvCheckMode   .... Total+1el-Energy
 Convergence forced     ConvForced      .... 0
 Energy Change          TolE            ....  1.000e-08 Eh
 1-El. energy change                    ....  1.000e-05 Eh
 Orbital Gradient       TolG            ....  1.000e-05
 Orbital Rotation angle TolX            ....  1.000e-05
 DIIS Error             TolErr          ....  5.000e-07

------------------------------
INITIAL GUESS: MODEL POTENTIAL
------------------------------
Loading Hartree-Fock densities                     ... done
Calculating cut-offs                               ... done
Initializing the effective Hamiltonian             ... done
Setting up the integral package (SHARK)            ... done
Starting the Coulomb interaction                   ... done (   0.1 sec)
Making the grid                                    ... done (   0.2 sec)
Mapping shells                                     ... done
Starting the XC term evaluation                    ... done (   0.0 sec)
  promolecular density results
     # of electrons  =     71.991608117
     EX              =    -58.920393853
     EC              =     -2.410755122
     EX+EC           =    -61.331148975
Transforming the Hamiltonian                       ... done (   0.0 sec)
Diagonalizing the Hamiltonian                      ... done (   0.0 sec)
Back transforming the eigenvectors                 ... done (   0.0 sec)
Now organizing SCF variables                       ... done
                      ------------------
                      INITIAL GUESS DONE (   0.3 sec)
                      ------------------
             **** ENERGY FILE WAS UPDATED (orca.en.tmp) ****
Finished Guess after   0.4 sec
Maximum memory used throughout the entire GUESS-calculation: 10.7 MB


           ************************************************************
           *        Program running with 6 parallel MPI-processes     *
           *              working on a common directory               *
           ************************************************************

-------------------------------------------------------------------------------------------
                                      ORCA LEAN-SCF
                              memory conserving SCF solver
-------------------------------------------------------------------------------------------

----------------------------------------D-I-I-S--------------------------------------------
Iteration    Energy (Eh)           Delta-E    RMSDP     MaxDP     DIISErr   Damp  Time(sec)
-------------------------------------------------------------------------------------------
               ***  Starting incremental Fock matrix formation  ***
    1    -460.5349957540217929     0.00e+00  8.23e-03  9.91e-02  2.65e-01  0.700   1.5
    2    -460.6769627188427876    -1.42e-01  5.28e-03  5.31e-02  9.58e-02  0.700   0.9
                               ***Turning on AO-DIIS***
    3    -460.7291478228916048    -5.22e-02  2.12e-03  1.75e-02  3.73e-02  0.700   0.8
    4    -460.7617653159564952    -3.26e-02  3.36e-03  1.97e-02  1.67e-02  0.000   0.8
    5    -460.8334662754980400    -7.17e-02  7.41e-04  6.55e-03  7.42e-03  0.000   0.8
                              *** Initializing SOSCF ***
---------------------------------------S-O-S-C-F--------------------------------------
Iteration    Energy (Eh)           Delta-E    RMSDP     MaxDP     MaxGrad    Time(sec)
--------------------------------------------------------------------------------------
    6    -460.8339459051637732    -4.80e-04  2.41e-04  1.37e-03  1.75e-03     0.8
               *** Restarting incremental Fock matrix formation ***
    7    -460.8339921221243003    -4.62e-05  1.82e-04  1.68e-03  5.51e-04     1.5
    8    -460.8339870715027473     5.05e-06  7.96e-05  1.34e-03  9.53e-04     1.1
    9    -460.8339968987568227    -9.83e-06  2.99e-05  3.16e-04  7.79e-05     1.1
   10    -460.8339967259468040     1.73e-07  1.70e-05  1.91e-04  1.39e-04     1.0
   11    -460.8339970639166268    -3.38e-07  1.16e-05  1.53e-04  4.96e-05     0.9
   12    -460.8339970337674458     3.01e-08  7.19e-06  8.29e-05  5.45e-05     0.8
   13    -460.8339970832652170    -4.95e-08  6.38e-07  7.54e-06  1.36e-06     0.8
                  *** Gradient check signals convergence ***

               *****************************************************
               *                     SUCCESS                       *
               *           SCF CONVERGED AFTER  13 CYCLES          *
               *****************************************************

Recomputing exchange energy using gridx3       ... done (    2.305 sec)
Old exchange energy                            :    -11.963145552 Eh
New exchange energy                            :    -11.963159072 Eh
Exchange energy change after final integration :     -0.000013521 Eh
Total energy after final integration           :   -460.834010599 Eh
             **** ENERGY FILE WAS UPDATED (orca.en.tmp) ****

----------------
TOTAL SCF ENERGY
----------------

Total Energy       :       -460.83401059864383 Eh          -12539.93095 eV

Components:
Nuclear Repulsion  :        455.55360547804992 Eh           12396.24382 eV
Electronic Energy  :       -916.38760255579609 Eh          -24936.17440 eV
One Electron Energy:      -1530.49675518634194 Eh          -41646.93400 eV
Two Electron Energy:        614.10915263054585 Eh           16710.75960 eV

Virial components:
Potential Energy   :       -917.55015568349575 Eh          -24967.80908 eV
Kinetic Energy     :        456.71614508485192 Eh           12427.87813 eV
Virial Ratio       :          2.00901624687042

DFT components:
N(Alpha)           :       36.000010043082 electrons
N(Beta)            :       36.000010043082 electrons
N(Total)           :       72.000020086164 electrons
E(X)               :      -47.566820820584 Eh       
E(C)               :       -2.850831790783 Eh       
E(XC)              :      -50.417652611366 Eh       

---------------
SCF CONVERGENCE
---------------

  Last Energy change         ...    4.9498e-08  Tolerance :   1.0000e-08
  Last MAX-Density change    ...    7.5442e-06  Tolerance :   1.0000e-07
  Last RMS-Density change    ...    6.3834e-07  Tolerance :   5.0000e-09
  Last DIIS Error            ...    1.7465e-03  Tolerance :   5.0000e-07
  Last Orbital Gradient      ...    1.3623e-06  Tolerance :   1.0000e-05
  Last Orbital Rotation      ...    1.9102e-06  Tolerance :   1.0000e-05


----------------
ORBITAL ENERGIES
----------------

  NO   OCC          E(Eh)            E(eV) 
   0   2.0000     -19.229010      -523.2480 
   1   2.0000     -19.188141      -522.1359 
   2   2.0000     -19.137819      -520.7665 
   3   2.0000     -10.326922      -281.0098 
   4   2.0000     -10.213849      -277.9330 
   5   2.0000     -10.181771      -277.0601 
   6   2.0000     -10.180936      -277.0373 
   7   2.0000     -10.179252      -276.9915 
   8   2.0000     -10.179184      -276.9897 
   9   2.0000      -1.159294       -31.5460 
  10   2.0000      -1.040865       -28.3234 
  11   2.0000      -0.920458       -25.0469 
  12   2.0000      -0.786242       -21.3947 
  13   2.0000      -0.750249       -20.4153 
  14   2.0000      -0.710901       -19.3446 
  15   2.0000      -0.644162       -17.5285 
  16   2.0000      -0.619799       -16.8656 
  17   2.0000      -0.515652       -14.0316 
  18   2.0000      -0.514978       -14.0133 
  19   2.0000      -0.494252       -13.4493 
  20   2.0000      -0.492603       -13.4044 
  21   2.0000      -0.472842       -12.8667 
  22   2.0000      -0.429533       -11.6882 
  23   2.0000      -0.423862       -11.5339 
  24   2.0000      -0.415699       -11.3117 
  25   2.0000      -0.411402       -11.1948 
  26   2.0000      -0.406319       -11.0565 
  27   2.0000      -0.396278       -10.7833 
  28   2.0000      -0.387237       -10.5372 
  29   2.0000      -0.379254       -10.3200 
  30   2.0000      -0.362079        -9.8527 
  31   2.0000      -0.358189        -9.7468 
  32   2.0000      -0.329472        -8.9654 
  33   2.0000      -0.302161        -8.2222 
  34   2.0000      -0.275282        -7.4908 
  35   2.0000      -0.243237        -6.6188 
  36   0.0000      -0.003839        -0.1045 
  37   0.0000       0.019291         0.5249 
  38   0.0000       0.021826         0.5939 
  39   0.0000       0.062505         1.7008 
  40   0.0000       0.074475         2.0266 
  41   0.0000       0.091879         2.5002 
  42   0.0000       0.102235         2.7819 
  43   0.0000       0.115137         3.1330 
  44   0.0000       0.128857         3.5064 
  45   0.0000       0.129028         3.5110 
  46   0.0000       0.143638         3.9086 
*Only the first 10 virtual orbitals were printed.

                    ********************************
                    * MULLIKEN POPULATION ANALYSIS *
                    ********************************

-----------------------
MULLIKEN ATOMIC CHARGES
-----------------------
   0 C :    0.039287
   1 C :    0.127741
   2 H :    0.044416
   3 H :    0.057723
   4 H :    0.055980
   5 O :   -0.146868
   6 O :   -0.152233
   7 H :    0.213495
   8 O :   -0.251450
   9 C :   -0.125433
  10 C :   -0.127468
  11 C :    0.078112
  12 H :    0.003761
  13 H :    0.007318
  14 H :    0.017652
  15 H :    0.024804
  16 C :    0.077762
  17 H :    0.006072
  18 H :    0.007164
  19 H :    0.024157
  20 H :    0.018008
Sum of atomic charges:    0.0000000

--------------------------------
MULLIKEN REDUCED ORBITAL CHARGES
--------------------------------
  0 C s       :     2.948725  s :     2.948725
      pz      :     1.017304  p :     2.987162
      px      :     0.938646
      py      :     1.031213
      dz2     :     0.006153  d :     0.024825
      dxz     :     0.003219
      dyz     :     0.004300
      dx2y2   :     0.008162
      dxy     :     0.002992

  1 C s       :     3.082869  s :     3.082869
      pz      :     0.825482  p :     2.658176
      px      :     1.010420
      py      :     0.822273
      dz2     :     0.038715  d :     0.131214
      dxz     :     0.027468
      dyz     :     0.024876
      dx2y2   :     0.023084
      dxy     :     0.017071

  2 H s       :     0.932386  s :     0.932386
      pz      :     0.010603  p :     0.023198
      px      :     0.005437
      py      :     0.007158

  3 H s       :     0.918177  s :     0.918177
      pz      :     0.005195  p :     0.024100
      px      :     0.005263
      py      :     0.013642

  4 H s       :     0.920084  s :     0.920084
      pz      :     0.012163  p :     0.023936
      px      :     0.005130
      py      :     0.006643

  5 O s       :     3.792747  s :     3.792747
      pz      :     1.531984  p :     4.330051
      px      :     1.108113
      py      :     1.689954
      dz2     :     0.005891  d :     0.024070
      dxz     :     0.004133
      dyz     :     0.003782
      dx2y2   :     0.006617
      dxy     :     0.003647

  6 O s       :     3.786930  s :     3.786930
      pz      :     1.604280  p :     4.347157
      px      :     0.923462
      py      :     1.819415
      dz2     :     0.003880  d :     0.018147
      dxz     :     0.002884
      dyz     :     0.002727
      dx2y2   :     0.006184
      dxy     :     0.002471

  7 H s       :     0.717810  s :     0.717810
      pz      :     0.032763  p :     0.068695
      px      :     0.012568
      py      :     0.023364

  8 O s       :     3.753931  s :     3.753931
      pz      :     1.480378  p :     4.478890
      px      :     1.555239
      py      :     1.443273
      dz2     :     0.004073  d :     0.018629
      dxz     :     0.005382
      dyz     :     0.003515
      dx2y2   :     0.002457
      dxy     :     0.003202

  9 C s       :     3.163363  s :     3.163363
      pz      :     0.955660  p :     2.926240
      px      :     0.974419
      py      :     0.996162
      dz2     :     0.006910  d :     0.035831
      dxz     :     0.005443
      dyz     :     0.008121
      dx2y2   :     0.007391
      dxy     :     0.007965

 10 C s       :     3.164633  s :     3.164633
      pz      :     0.986710  p :     2.927003
      px      :     0.975251
      py      :     0.965041
      dz2     :     0.008969  d :     0.035832
      dxz     :     0.005807
      dyz     :     0.009627
      dx2y2   :     0.003851
      dxy     :     0.007579

 11 C s       :     2.925328  s :     2.925328
      pz      :     0.978211  p :     2.967742
      px      :     0.992711
      py      :     0.996820
      dz2     :     0.006927  d :     0.028819
      dxz     :     0.008502
      dyz     :     0.003270
      dx2y2   :     0.002322
      dxy     :     0.007797

 12 H s       :     0.973887  s :     0.973887
      pz      :     0.005075  p :     0.022353
      px      :     0.007161
      py      :     0.010116

 13 H s       :     0.969307  s :     0.969307
      pz      :     0.005065  p :     0.023375
      px      :     0.007928
      py      :     0.010381

 14 H s       :     0.959085  s :     0.959085
      pz      :     0.004310  p :     0.023263
      px      :     0.007944
      py      :     0.011009

 15 H s       :     0.951689  s :     0.951689
      pz      :     0.008999  p :     0.023507
      px      :     0.009199
      py      :     0.005308

 16 C s       :     2.925316  s :     2.925316
      pz      :     0.991896  p :     2.968087
      px      :     0.992191
      py      :     0.984001
      dz2     :     0.005029  d :     0.028835
      dxz     :     0.007827
      dyz     :     0.003522
      dx2y2   :     0.003860
      dxy     :     0.008597

 17 H s       :     0.971549  s :     0.971549
      pz      :     0.011783  p :     0.022379
      px      :     0.007087
      py      :     0.003509

 18 H s       :     0.969459  s :     0.969459
      pz      :     0.011296  p :     0.023377
      px      :     0.007720
      py      :     0.004361

 19 H s       :     0.952346  s :     0.952346
      pz      :     0.005362  p :     0.023497
      px      :     0.008995
      py      :     0.009140

 20 H s       :     0.958726  s :     0.958726
      pz      :     0.009856  p :     0.023265
      px      :     0.008167
      py      :     0.005242



                     *******************************
                     * LOEWDIN POPULATION ANALYSIS *
                     *******************************

----------------------
LOEWDIN ATOMIC CHARGES
----------------------
   0 C :   -0.065947
   1 C :    0.066543
   2 H :    0.042440
   3 H :    0.055028
   4 H :    0.053820
   5 O :   -0.007104
   6 O :   -0.036882
   7 H :    0.054431
   8 O :   -0.181908
   9 C :   -0.048793
  10 C :   -0.048840
  11 C :   -0.058803
  12 H :    0.025985
  13 H :    0.025327
  14 H :    0.031822
  15 H :    0.033996
  16 C :   -0.058776
  17 H :    0.026657
  18 H :    0.025259
  19 H :    0.033771
  20 H :    0.031973

-------------------------------
LOEWDIN REDUCED ORBITAL CHARGES
-------------------------------
  0 C s       :     2.843981  s :     2.843981
      pz      :     1.072952  p :     3.154655
      px      :     1.007561
      py      :     1.074142
      dz2     :     0.016048  d :     0.067311
      dxz     :     0.009431
      dyz     :     0.010889
      dx2y2   :     0.022633
      dxy     :     0.008311

  1 C s       :     2.855403  s :     2.855403
      pz      :     0.910935  p :     2.787598
      px      :     1.036046
      py      :     0.840617
      dz2     :     0.085866  d :     0.290455
      dxz     :     0.062459
      dyz     :     0.057501
      dx2y2   :     0.050543
      dxy     :     0.034086

  2 H s       :     0.890772  s :     0.890772
      pz      :     0.029805  p :     0.066787
      px      :     0.017317
      py      :     0.019665

  3 H s       :     0.879150  s :     0.879150
      pz      :     0.012331  p :     0.065823
      px      :     0.014773
      py      :     0.038718

  4 H s       :     0.880388  s :     0.880388
      pz      :     0.034436  p :     0.065792
      px      :     0.014609
      py      :     0.016747

  5 O s       :     3.540815  s :     3.540815
      pz      :     1.576612  p :     4.423462
      px      :     1.156301
      py      :     1.690550
      dz2     :     0.009747  d :     0.042826
      dxz     :     0.008449
      dyz     :     0.006841
      dx2y2   :     0.010992
      dxy     :     0.006797

  6 O s       :     3.556906  s :     3.556906
      pz      :     1.633319  p :     4.448311
      px      :     1.003852
      py      :     1.811140
      dz2     :     0.006457  d :     0.031665
      dxz     :     0.005112
      dyz     :     0.004551
      dx2y2   :     0.011012
      dxy     :     0.004533

  7 H s       :     0.750528  s :     0.750528
      pz      :     0.096635  p :     0.195040
      px      :     0.031472
      py      :     0.066933

  8 O s       :     3.543612  s :     3.543612
      pz      :     1.538680  p :     4.606413
      px      :     1.608032
      py      :     1.459701
      dz2     :     0.005756  d :     0.031884
      dxz     :     0.010828
      dyz     :     0.006085
      dx2y2   :     0.003881
      dxy     :     0.005334

  9 C s       :     2.879272  s :     2.879272
      pz      :     1.037312  p :     3.080614
      px      :     0.990065
      py      :     1.053237
      dz2     :     0.018201  d :     0.088907
      dxz     :     0.012264
      dyz     :     0.022131
      dx2y2   :     0.018183
      dxy     :     0.018129

 10 C s       :     2.879307  s :     2.879307
      pz      :     1.028105  p :     3.080597
      px      :     0.990934
      py      :     1.061558
      dz2     :     0.021908  d :     0.088935
      dxz     :     0.012930
      dyz     :     0.025697
      dx2y2   :     0.011005
      dxy     :     0.017396

 11 C s       :     2.833977  s :     2.833977
      pz      :     1.035579  p :     3.151561
      px      :     1.057202
      py      :     1.058780
      dz2     :     0.018223  d :     0.073264
      dxz     :     0.022284
      dyz     :     0.007279
      dx2y2   :     0.005375
      dxy     :     0.020104

 12 H s       :     0.906845  s :     0.906845
      pz      :     0.016475  p :     0.067171
      px      :     0.022202
      py      :     0.028493

 13 H s       :     0.909734  s :     0.909734
      pz      :     0.014578  p :     0.064939
      px      :     0.021363
      py      :     0.028998

 14 H s       :     0.904465  s :     0.904465
      pz      :     0.012240  p :     0.063714
      px      :     0.020933
      py      :     0.030542

 15 H s       :     0.901713  s :     0.901713
      pz      :     0.026068  p :     0.064292
      px      :     0.025650
      py      :     0.012573

 16 C s       :     2.833909  s :     2.833909
      pz      :     1.061029  p :     3.151546
      px      :     1.056412
      py      :     1.034105
      dz2     :     0.012829  d :     0.073320
      dxz     :     0.020172
      dyz     :     0.008422
      dx2y2   :     0.009296
      dxy     :     0.022601

 17 H s       :     0.905987  s :     0.905987
      pz      :     0.034255  p :     0.067356
      px      :     0.021957
      py      :     0.011145

 18 H s       :     0.909788  s :     0.909788
      pz      :     0.031648  p :     0.064953
      px      :     0.020780
      py      :     0.012524

 19 H s       :     0.901998  s :     0.901998
      pz      :     0.012690  p :     0.064231
      px      :     0.025069
      py      :     0.026472

 20 H s       :     0.904291  s :     0.904291
      pz      :     0.027323  p :     0.063736
      px      :     0.021646
      py      :     0.014767



                      *****************************
                      * MAYER POPULATION ANALYSIS *
                      *****************************

  NA   - Mulliken gross atomic population
  ZA   - Total nuclear charge
  QA   - Mulliken gross atomic charge
  VA   - Mayer's total valence
  BVA  - Mayer's bonded valence
  FA   - Mayer's free valence

  ATOM       NA         ZA         QA         VA         BVA        FA
  0 C      5.9607     6.0000     0.0393     3.9044     3.9044     0.0000
  1 C      5.8723     6.0000     0.1277     4.3425     4.3425     0.0000
  2 H      0.9556     1.0000     0.0444     1.0031     1.0031    -0.0000
  3 H      0.9423     1.0000     0.0577     0.9996     0.9996    -0.0000
  4 H      0.9440     1.0000     0.0560     1.0007     1.0007    -0.0000
  5 O      8.1469     8.0000    -0.1469     2.2022     2.2022    -0.0000
  6 O      8.1522     8.0000    -0.1522     1.9492     1.9492     0.0000
  7 H      0.7865     1.0000     0.2135     1.0723     1.0723    -0.0000
  8 O      8.2514     8.0000    -0.2514     2.2426     2.2426    -0.0000
  9 C      6.1254     6.0000    -0.1254     4.0946     4.0946     0.0000
 10 C      6.1275     6.0000    -0.1275     4.0975     4.0975     0.0000
 11 C      5.9219     6.0000     0.0781     3.9265     3.9265     0.0000
 12 H      0.9962     1.0000     0.0038     0.9846     0.9846     0.0000
 13 H      0.9927     1.0000     0.0073     0.9986     0.9986     0.0000
 14 H      0.9823     1.0000     0.0177     0.9848     0.9848    -0.0000
 15 H      0.9752     1.0000     0.0248     0.9963     0.9963    -0.0000
 16 C      5.9222     6.0000     0.0778     3.9278     3.9278     0.0000
 17 H      0.9939     1.0000     0.0061     0.9866     0.9866     0.0000
 18 H      0.9928     1.0000     0.0072     0.9986     0.9986     0.0000
 19 H      0.9758     1.0000     0.0242     0.9958     0.9958    -0.0000
 20 H      0.9820     1.0000     0.0180     0.9849     0.9849     0.0000

  Mayer bond orders larger than 0.100000
B(  0-C ,  1-C ) :   1.0416 B(  0-C ,  2-H ) :   0.9532 B(  0-C ,  3-H ) :   0.9471 
B(  0-C ,  4-H ) :   0.9483 B(  1-C ,  5-O ) :   1.1567 B(  1-C ,  8-O ) :   2.0103 
B(  5-O ,  6-O ) :   0.9254 B(  6-O ,  7-H ) :   0.8843 B(  9-C , 10-C ) :   1.9164 
B(  9-C , 16-C ) :   1.0861 B(  9-C , 17-H ) :   0.9507 B( 10-C , 11-C ) :   1.0850 
B( 10-C , 12-H ) :   0.9514 B( 11-C , 13-H ) :   0.9591 B( 11-C , 14-H ) :   0.9511 
B( 11-C , 15-H ) :   0.9469 B( 16-C , 18-H ) :   0.9590 B( 16-C , 19-H ) :   0.9469 
B( 16-C , 20-H ) :   0.9510 

-------
TIMINGS
-------

Total SCF time: 0 days 0 hours 0 min 15 sec 

Total time                  ....      15.825 sec
Sum of individual times     ....      15.147 sec  ( 95.7%)

SCF preparation             ....       0.195 sec  (  1.2%)
Fock matrix formation       ....      14.525 sec  ( 91.8%)
  Startup                   ....       0.008 sec  (  0.1% of F)
  Split-RI-J                ....       1.462 sec  ( 10.1% of F)
  Chain of spheres X        ....      10.973 sec  ( 75.5% of F)
  XC integration            ....       2.495 sec  ( 17.2% of F)
    XC Preparation          ....       0.000 sec  (  0.0% of XC)
    Basis function eval.    ....       0.842 sec  ( 33.7% of XC)
    Density eval.           ....       0.471 sec  ( 18.9% of XC)
    XC-Functional eval.     ....       0.149 sec  (  6.0% of XC)
    XC-Potential eval.      ....       0.469 sec  ( 18.8% of XC)
Diagonalization             ....       0.000 sec  (  0.0%)
Density matrix formation    ....       0.054 sec  (  0.3%)
Total Energy calculation    ....       0.027 sec  (  0.2%)
Population analysis         ....       0.021 sec  (  0.1%)
Orbital Transformation      ....       0.032 sec  (  0.2%)
Orbital Orthonormalization  ....       0.000 sec  (  0.0%)
DIIS solution               ....       0.153 sec  (  1.0%)
SOSCF solution              ....       0.140 sec  (  0.9%)
Finished LeanSCF after  15.8 sec

Maximum memory used throughout the entire LEANSCF-calculation: 16.5 MB


-------------------------------------------------------------------------------
                          DFT DISPERSION CORRECTION                            
                                                                               
                              DFTD3 V3.1  Rev 1                                
                          USING Becke-Johnson damping                          
-------------------------------------------------------------------------------
The B3LYP functional is recognized
Active option DFTDOPT                   ...         4   

molecular C6(AA) [au] = 3462.673700 


            DFT-D V3
 parameters
 s6 scaling factor         :     1.0000 
 a1 scaling factor         :     0.3981 
 s8 scaling factor         :     1.9889 
 a2 scaling factor         :     4.4211 
 ad hoc parameters k1-k3   :    16.0000     1.3333    -4.0000 

 Edisp/kcal,au: -16.633205309804  -0.026506697067 
 E6   /kcal   :  -8.280468463 
 E8   /kcal   :  -8.352736847 
 % E8         :  50.217241301 

-------------------------   ----------------
Dispersion correction           -0.026506697
-------------------------   ----------------


-------------------------   --------------------
FINAL SINGLE POINT ENERGY      -460.860517295711
-------------------------   --------------------



           ************************************************************
           *        Program running with 6 parallel MPI-processes     *
           *              working on a common directory               *
           ************************************************************
------------------------------------------------------------------------------
                         ORCA SCF GRADIENT CALCULATION
------------------------------------------------------------------------------

Nuc. rep. gradient        (SHARK) ... done (  0.0 sec)
HCore & Overlap gradient  (SHARK) ... done (  0.1 sec)
Split-RIJ-J gradient      (SHARK) ... done (  0.4 sec)
done (  6.3 sec)
XC gradient                       ... done (  1.5 sec)
Dispersion correction             ... done (  0.0 sec)

-------------------
DISPERSION GRADIENT
-------------------

   1   C   :    0.000291181   -0.000022470    0.000044042
   2   C   :    0.000387180    0.000034468   -0.000032871
   3   H   :    0.000167215    0.000026263   -0.000037571
   4   H   :    0.000164221   -0.000074857    0.000012321
   5   H   :    0.000160244    0.000021087    0.000073536
   6   O   :    0.000055988    0.000129129   -0.000206919
   7   O   :    0.000446101    0.000270889   -0.000416960
   8   H   :    0.000250027    0.000078145   -0.000109782
   9   O   :    0.000382271   -0.000087971    0.000200947
  10   C   :   -0.000358415    0.000108265    0.000476965
  11   C   :   -0.000340720   -0.000500870    0.000080094
  12   C   :   -0.000299452   -0.000440005   -0.000325476
  13   H   :   -0.000066048   -0.000279014    0.000124854
  14   H   :   -0.000190966   -0.000110753   -0.000239957
  15   H   :   -0.000112023   -0.000171613   -0.000130420
  16   H   :   -0.000103226   -0.000203520   -0.000259700
  17   C   :   -0.000322561    0.000467910    0.000263715
  18   H   :   -0.000075026   -0.000009576    0.000301403
  19   H   :   -0.000198425    0.000259542    0.000000647
  20   H   :   -0.000117502    0.000318669    0.000078400
  21   H   :   -0.000120064    0.000186281    0.000102734

Difference to translation invariance:
           :    0.0000000000    0.0000000000    0.0000000000

Difference to rotation invariance:
           :    0.0000000000   -0.0000000000   -0.0000000000

Norm of the Dispersion gradient    ...    0.0018459212
RMS gradient                       ...    0.0002325642
MAX gradient                       ...    0.0005008701

------------------
CARTESIAN GRADIENT
------------------

   1   C   :   -0.000030778   -0.000090567   -0.000003514
   2   C   :    0.000136056    0.000081135   -0.000086727
   3   H   :    0.000005544   -0.000004339    0.000072814
   4   H   :   -0.000038287    0.000007099    0.000013325
   5   H   :    0.000040374   -0.000047254   -0.000040259
   6   O   :    0.000041263    0.000075346   -0.000038750
   7   O   :   -0.000041468    0.000076788   -0.000080535
   8   H   :    0.000021367   -0.000012027    0.000001500
   9   O   :   -0.000157645    0.000119677    0.000086397
  10   C   :   -0.000088402    0.000012304    0.000080634
  11   C   :    0.000065891   -0.000037877    0.000029530
  12   C   :    0.000042294   -0.000071929   -0.000087414
  13   H   :   -0.000069187    0.000020467    0.000035160
  14   H   :   -0.000064299   -0.000016905   -0.000010391
  15   H   :   -0.000059461   -0.000023023   -0.000009682
  16   H   :    0.000019786    0.000045183    0.000035892
  17   C   :    0.000098990   -0.000003637    0.000058711
  18   H   :    0.000007357   -0.000003095   -0.000045538
  19   H   :   -0.000004025   -0.000060431    0.000043140
  20   H   :    0.000102147    0.000000142   -0.000038167
  21   H   :   -0.000027516   -0.000067057   -0.000016126

Difference to translation invariance:
           :   -0.0000000001   -0.0000000000    0.0000000000

Difference to rotation invariance:
           :    0.0000913509    0.0001219074    0.0001659186

Norm of the Cartesian gradient     ...    0.0004662975
RMS gradient                       ...    0.0000587480
MAX gradient                       ...    0.0001576452

-------
TIMINGS
-------

Total SCF gradient time     ....        8.377 sec

Densities                   ....       0.001 sec  (  0.0%)
One electron gradient       ....       0.087 sec  (  1.0%)
RI-J Coulomb gradient       ....       0.434 sec  (  5.2%)
COSX gradient               ....       6.327 sec  ( 75.5%)
XC gradient                 ....       1.477 sec  ( 17.6%)

Maximum memory used throughout the entire SCFGRAD-calculation: 30.7 MB


           ************************************************************
           *        Program running with 6 parallel MPI-processes     *
           *              working on a common directory               *
           ************************************************************

------------------------------------------------------------------------------
                              ORCA PROPERTY CALCULATIONS
------------------------------------------------------------------------------

GBWName                                 ... orca.gbw
Number of atoms                         ...     21
Number of basis functions               ...    186
Max core memory                         ...   4096 MB

Electric properties:
Dipole moment                           ... YES
Quadrupole moment                       ...  NO
Static polarizability (Dipole/Dipole)   ...  NO
Static polarizability (Dipole/Quad.)    ...  NO
Static polarizability (Quad./Quad.)     ...  NO
Static polarizability (Velocity)        ...  NO
Static hyperpolarizability              ...  NO

Atomic electric properties:
Dipole moment                           ...  NO
Quadrupole moment                       ...  NO
Static polarizability                   ...  NO

Choice of electric origin               ... Center of mass
Position of electric origin             ...    -0.320663     0.008958    -0.104944

General magnetic properties:
Magnetizability                         ...  NO

EPR properties:
g-Tensor (aka g-matrix)                 ...  NO
Zero-Field splitting spin-orbit         ...  NO
Zero-field splitting spin-spin          ...  NO
Hyperfine couplings                     ...  NO (   0 nuclei)
Quadrupole couplings                    ...  NO (   0 nuclei)
Contact density                         ...  NO (   0 nuclei)

NMR properties:
Chemical shifts                         ...  NO (   0 nuclei)
Spin-rotation constants                 ...  NO (   0 nuclei)
Spin-spin couplings                     ...  NO (   0 nuclei,    0 pairs)

Choice of magnetic origin               ... GIAO
Position of magnetic origin             ...     0.000000     0.000000     0.000000

Properties with geometric perturbations:
SCF Hessian                             ...  NO
IR spectrum                             ...  NO
VCD spectrum                            ...  NO
X-ray spectroscopy properties:
SCF XES/XAS/RIXS spectra                ...  NO

SCF SOC stabilization energy            ...  NO
Diagonal Born-Oppenheimer correction    ...  NO

-------------
DIPOLE MOMENT
-------------

Method             : SCF
Type of density    : Electron Density
Multiplicity       :   1
Irrep              :   0
Energy             :  -460.8340105986438289 Eh
Basis              : AO
                                X                 Y                 Z
Electronic contribution:      7.984948265       0.713102576      -0.645331248
Nuclear contribution   :     -7.378839145      -0.826407521       0.803631740
                        -----------------------------------------
Total Dipole Moment    :      0.606109120      -0.113304945       0.158300491
                        -----------------------------------------
Magnitude (a.u.)       :      0.636604525
Magnitude (Debye)      :      1.618120109



--------------------
Rotational spectrum 
--------------------
 
Rotational constants in cm-1:             0.088901             0.022908             0.022612 
Rotational constants in MHz :          2665.179115           686.756520           677.901654 

Dipole components along the rotational axes: 
x,y,z [a.u.] :     0.594530    -0.055743    -0.220663 
x,y,z [Debye]:     1.511175    -0.141688    -0.560880 

 

Dipole moment calculation done in   0.0 sec 

Maximum memory used throughout the entire PROP-calculation: 9.0 MB

--------------------------------
SUGGESTED CITATIONS FOR THIS RUN
--------------------------------

Below you find a list of papers that are relevant to this ORCA run
We neither can nor want to force you to cite these papers, but we appreciate if you do
You receive ORCA, which is the product of decades of hard work by many enthusiastic individuals, for free
The only thing we kindly ask in return is that you cite our papers,
We deeply appreciate it, if you show your appreciation for ORCA by not just citing the generic ORCA reference.

Please note that relegating all ORCA citations to the supporting information does *not* help us.
SI sections are not indexed - citations you put there will not count into any citation statistics
But we need these citations in order to attract the funding resources that allow us to do what we are doing

Therefore, if you are a happy ORCA user, please consider citing a few of the papers listed below in the main body of your paper

In addition to the list printed below, the program has created the file orca.bibtex that contains the list in bibtex format
You can import this file easily into all common literature databanks and citation aid programs


List of essential papers. We consider these as the minimum necessary citations

  1. Neese, F.
     Software update: the ORCA program system, version 6.0
     WIRES Comput. Molec. Sci. 2025 15(1), e70019
     doi.org/10.1002/wcms.7019

List of papers to cite with high priority. The work reported in these papers was absolutely
necessary for this run to complete.
Our perspective: the developers of density functionals and basis sets usually get cited in chemistry papers
Good! But without the algorithms to do something with them, the functionals or basis sets would not do anything.
Hence, in our opinion, the algorithm design and method developments papers are equally worthy of getting cited

  1. Neese, F.
     An improvement of the resolution of the identity approximation for the formation of the Coulomb matrix
     J. Comp. Chem. 2003 24(14), 1740-1747
     doi.org/10.1002/jcc.10318
  2. Neese, F.; Wennmohs, F.; Hansen, A.; Becker, U.
     Efficient, approximate and parallel Hartree-Fock and hybrid DFT calculations. A 'chain-of-spheres' algorithm for the Hartree-Fock exchange
     Chem. Phys. 2009 356(1-3), 98-109
     doi.org/10.1016/j.chemphys.2008.10.036
  3. Grimme, S.; Antony, J.; Ehrlich, S.; Krieg, H.
     A consistent and accurate ab initio parametrization of density functional dispersion correction (DFT-D) for the 94 elements H-Pu
     J. Chem. Phys. 2010 132 , 154104
     doi.org/10.1063/1.3382344
  4. Grimme, S.; Ehrlich, S.; Goerigk, L.
     Effect of the damping function in dispersion corrected density functional theory
     J. Comput. Chem. 2011 32(7), 1456-1465
     doi.org/10.1002/jcc.21759
  5. Helmich-Paris, B.; de Souza, B.; Neese, F.; Izsák, R.
     An improved chain of spheres for exchange algorithm
     J. Chem. Phys. 2021 155(10), 104109
     doi.org/10.1063/5.0058766
  6. Neese, F.
     The SHARK Integral Generation and Digestion System
     J. Comp. Chem. 2022 44(3), 381
     doi.org/10.1002/jcc.26942

List of suggested additional citations. These are papers that are important in the 'surrounding' of 
of this run, or papers that preceded the highly important papers. If you like your results we are grateful for a citation.

  1. Izsak, R.; Neese, F.
     An overlap fitted chain of spheres exchange method
     J. Chem. Phys. 2011 135 , 144105
     doi.org/10.1063/1.3646921
  2. Izsak, R.; Hansen, A.; Neese, F.
     The resolution of identity and chain of spheres approximations for the LPNO-CCSD singles Fock term
     Molec. Phys. 2012 110 , 2413-2417
     doi.org/10.1080/00268976.2012.687466
  3. Neese, F.
     The ORCA program system
     WIRES Comput. Molec. Sci. 2012 2(1), 73-78
     doi.org/10.1002/wcms.81
  4. Izsak, R.; Neese, F.; Klopper, W.
     Robust fitting techniques in the chain of spheres approximation to the Fock exchange: The role of the complementary space
     J. Chem. Phys. 2013 139 , 
     doi.org/10.1063/1.4819264
  5. Neese, F.
     Software update: the ORCA program system, version 4.0
     WIRES Comput. Molec. Sci. 2018 8(1), 1-6
     doi.org/10.1002/wcms.1327
  6. Neese, F.; Wennmohs, F.; Becker, U.; Riplinger, C.
     The ORCA quantum chemistry program package
     J. Chem. Phys. 2020 152(22), 224108
     doi.org/10.1063/5.0004608
  7. Neese, F.
     Software update: The ORCA program system—Version 5.0
     WIRES Comput. Molec. Sci. 2022 12(1), e1606
     doi.org/10.1002/wcms.1606

List of optional additional citations

  1. Neese, F.
     Approximate second-order SCF convergence for spin unrestricted wavefunctions
     Chem. Phys. Lett. 2000 325(1-3), 93-98
     doi.org/10.1016/s0009-2614(00)00662-x

Timings for individual modules:

Sum of individual times          ...       28.178 sec (=   0.470 min)
Startup calculation              ...        1.901 sec (=   0.032 min)   6.7 %
SCF iterations                   ...       16.951 sec (=   0.283 min)  60.2 %
Property calculations            ...        0.452 sec (=   0.008 min)   1.6 %
SCF Gradient evaluation          ...        8.874 sec (=   0.148 min)  31.5 %
                             ****ORCA TERMINATED NORMALLY****
TOTAL RUN TIME: 0 days 0 hours 0 minutes 28 seconds 727 msec
