
                                 *****************
                                 * O   R   C   A *
                                 *****************

                                            #,                                       
                                            ###                                      
                                            ####                                     
                                            #####                                    
                                            ######                                   
                                           ########,                                 
                                     ,,################,,,,,                         
                               ,,#################################,,                 
                          ,,##########################################,,             
                       ,#########################################, ''#####,          
                    ,#############################################,,   '####,        
                  ,##################################################,,,,####,       
                ,###########''''           ''''###############################       
              ,#####''   ,,,,##########,,,,          '''####'''          '####       
            ,##' ,,,,###########################,,,                        '##       
           ' ,,###''''                  '''############,,,                           
         ,,##''                                '''############,,,,        ,,,,,,###''
      ,#''                                            '''#######################'''  
     '                                                          ''''####''''         
             ,#######,   #######,   ,#######,      ##                                
            ,#'     '#,  ##    ##  ,#'     '#,    #''#        ,####,    ,#,          
            ##       ##  ##   ,#'  ##            #'  '#       #'       ,# #          
            ##       ##  #######   ##           ,######,      #####,      #          
            '#,     ,#'  ##    ##  '#,     ,#' ,#      #,     #,   #      #          
             '#######'   ##     ##  '#######'  #'      '#     '####' #    #          



                #########################################################
                #                        -***-                          #
                #          Department of theory and spectroscopy        #
                #                                                       #
                #                      Frank Neese                      #
                #                                                       #
                #     Directorship, Architecture, Infrastructure        #
                #                    SHARK, DRIVERS                     #
                #        Core code/Algorithms in most modules           #
                #                                                       #
                #        Max Planck Institute fuer Kohlenforschung      #
                #                Kaiser Wilhelm Platz 1                 #
                #                 D-45470 Muelheim/Ruhr                 #
                #                      Germany                          #
                #                                                       #
                #                  All rights reserved                  #
                #                        -***-                          #
                #########################################################


                         Program Version 6.1.0  -  RELEASE   -
                                (GIT: $679e74b$)
                          ($2025-06-10 18:02:51 +0200$)


 With contributions from (in alphabetic order):
[Max-Planck-Institut fuer Kohlenforschung]                               
  Daniel Aravena         : Magnetic Suceptibility                        
  Michael Atanasov       : Ab Initio Ligand Field Theory (pilot matlab implementation)
  Alexander A. Auer      : GIAO ZORA, VPT2 properties, NMR spectrum      
  Ute Becker             : All parallelization in ORCA, NUMFREQ, NUMCALC 
  Giovanni Bistoni       : ED, misc. LED, open-shell LED, HFLD           
  Dmytro Bykov           : pre 5.0 version of the SCF Hessian            
  Marcos Casanova-Páez   : Triplet and SCS-CIS(D). UHF-(DLPNO)-IP/EA/STEOM-CCSD. UHF-CVS-IP/STEOM-CCSD   
  Vijay G. Chilkuri      : MRCI spin determinant printing, contributions to CSF-ICE 
  Pauline Colinet        : FMM embedding                                 
  Dipayan Datta          : RHF DLPNO-CCSD density                        
  Achintya Kumar Dutta   : EOM-CC, STEOM-CC                              
  Nicolas Foglia         : Exact transition moments, OPA infrastructure, MCD improvements    
  Dmitry Ganyushin       : Spin-Orbit,Spin-Spin,Magnetic field MRCI      
  Miquel Garcia-Rates    : C-PCM and meta-GGA Hessian, CCSD/C-PCM, Gaussian charge scheme 
  Tiago L. C. Gouveia    : GS-ROHF, GS-ROCIS                             
  Yang Guo               : DLPNO-NEVPT2, F12-NEVPT2, CIM, IAO-localization        
  Andreas Hansen         : Spin unrestricted coupled pair/coupled cluster methods 
  Ingolf Harden          : AUTO-CI MPn and infrastructure                
  Benjamin Helmich-Paris : MC-RPA, TRAH-(SCF,CASSCF), AVAS, COSX integrals, SCF dyn. polar., MC-PDFT, srDFT 
  Lee Huntington         : MR-EOM, pCC                                   
  Robert Izsak           : Overlap fitted RIJCOSX, COSX-SCS-MP3, EOM     
  Riya Kayal             : Wick's Theorem for AUTO-CI, AUTO-CI UHF-CCSDT 
  Emily Kempfer          : AUTO-CI RHF CISDT and CCSDT, approximate NEVPT4
  Christian Kollmar      : KDIIS, OOCD, Brueckner-CCSD(T), CCSD density, CASPT2, CASPT2-K, improved NEVPT2 
  Axel Koslowski         : Symmetry handling                             
  Simone Kossmann        : meta-GGA functionals, TD-DFT gradient, OOMP2, (MP2 Hessian; deprecated post 5.0) 
  Lucas Lang             : DCDCAS, Hyperfine gauge corrections, ICE-SOC+SSC
  Marvin Lechner         : AUTO-CI (C++ implementation), FIC-MRCC        
  Spencer Leger          : CASSCF response                               
  Dagmar Lenk            : GEPOL surface, SMD, ORCA-2-JSON               
  Dimitrios Liakos       : Extrapolation schemes; Compound Job, Property file
  Dimitrios Manganas     : Further ROCIS development; embedding schemes. LFT, Crystal Embedding 
  Dimitrios Pantazis     : SARC Basis sets                               
  Anastasios Papadopoulos: AUTO-CI, single reference methods and gradients 
  Taras Petrenko         : pre 6.0 DFT Hessian and TD-DFT gradient,  ECA, NRVS 
  Petra Pikulova         : Analytic Raman intensities                    
  Peter Pinski           : DLPNO-MP2, DLPNO-MP2 Gradient                 
  Shashank Vittal Rao    : ES-AILFT, MagRelax                            
  Christoph Reimann      : Effective Core Potentials                     
  Marius Retegan         : Local ZFS, SOC                                
  Christoph Riplinger    : Optimizer, TS searches, QM/MM, DLPNO-CCSD(T), (RO)-DLPNO pert. Triples 
  Michael Roemelt        : Original ROCIS implementation, recursive CI coupling coefficients
  Masaaki Saitow         : Open-shell DLPNO-CCSD energy and density      
  Barbara Sandhoefer     : DKH picture change effects                    
  Yorick L. A. Schmerwitz: GMF and freeze-and-release deltaSCF, NEB S-IDPP initial path                    
  Kantharuban Sivalingam : CASSCF convergence/infrastructure, NEVPT2, NEVPT3, NEVPT4(SD), FIC-MRCI and CEPA variants
  Bernardo de Souza      : ESD, SOC TD-DFT                               
  Georgi L. Stoychev     : AutoAux, RI-MP2 NMR, DLPNO-MP2 response, X2C  
  Van Anh Tran           : RI-MP2 g-tensors                              
  Willem Van den Heuvel  : Paramagnetic NMR                              
  Zikuan Wang            : NOTCH, Electric field optimization            
  Frank Wennmohs         : Technical directorship and infrastructure     
  Hang Xu                : AUTO-CI-Response properties                   
                                                                         
[FACCTs GmbH]                                                            
  Markus Bursch, Nicolas Foglia, Miquel Garcia-Rates, Ingolf Harden, Hagen Neugebauer, Anastasios Papadopoulos, 
  Christoph Riplinger, Bernardo de Souza, Georgi L. Stoychev                                                    
                                                                 
  APM, various basis sets, CI-OPT, improved COSX, DLPNO-Multilevel,           
  DOCKER, DRACO, updates on ESD, Fragmentator, GOAT, IRC, LR-CPCM, L-BFGS, MBIS, meta-GGA TD-DFT gradient, ML-optimized integration grids, 
  MM, NACMEs, nearIR, NEB, NEB-TS, NL-DFT gradient (VV10), 2- and 3-layer-ONIOM, interface openCOSMO-RS, QMMM,   
  Crystal-QMMM, RESP, rigid body optimization, SF, symmetry and pop. for TD-DFT, various functionals, SOLVATOR                                   
                                                                         
[Other institutions]                                                     
  V. Asgeirsson          : NEB                                           
  Christoph Bannwarth    : sTDA-DFT, sTD-DFT, PBEh-3c, B97-3c, D3        
  Giovanni Bistoni       : ETS/NOCV, ADLD/ADEX, COVALED                  
  Martin Brehm           : Molecular dynamics                            
  Ronald Cardenas        : ETS/NOCV                                      
  Martina Colucci        : COVALED                                       
  Sebastian Ehlert       : rSCAN, r2SCAN, r2SCAN-3c, D4, dhf basis sets  
  Marvin Friede          : D4 for Fr, Ra, Ac-Lr                          
  Lars Goerigk           : TD-DFT with DH, B97 family of functionals     
  Stefan Grimme          : VdW corrections, initial TS optimization, DFT functionals, gCP, sTDA/sTD-DF 
  Waldemar Hujo          : DFT-NL                                        
  H. Jonsson             : NEB                                           
  Holger Kruse           : gCP                                           
  Marcel Mueller         : wB97X-3c, vDZP basis set                      
  Hagen Neugebauer       : wr2SCAN, Native XTB                           
  Gianluca Regni         : ADLD/ADEX                                     
  Tobias Risthaus        : pre 6.0 range-separated hybrid DFT and stability analysis
  Lukas Wittmann         : regularized MP2, r2SCAN double-hybrids, wr2SCAN        
                                                                         
We gratefully acknowledge several colleagues who have allowed us to      
interface, adapt or use parts of their codes:                            
  Ed Valeev, F. Pavosevic, A. Kumar             : LibInt (2-el integral package), F12 methods 
  Garnet Chan, S. Sharma, J. Yang, R. Olivares  : DMRG                   
  Ulf Ekstrom                                   : XCFun DFT Library      
  Mihaly Kallay                                 : mrcc  (arbitrary order and MRCC methods)
  Frank Weinhold                                : gennbo (NPA and NBO analysis)           
  Simon Mueller                                 : openCOSMO-RS                            
  Christopher J. Cramer and Donald G. Truhlar   : smd solvation model                     
  S Lehtola, MJT Oliveira, MAL Marques          : LibXC Library                           
  Liviu Ungur et al                             : ANISO software                          


 Your calculation uses the libint2 library for the computation of 2-el integrals
 For citations please refer to: http://libint.valeyev.net

 Your ORCA version has been built with support for libXC version: 7.0.0
 For citations please refer to: https://libxc.gitlab.io

 This ORCA versions uses:
   CBLAS   interface :  Fast vector & matrix operations
   LAPACKE interface :  Fast linear algebra routines
   SCALAPACK package :  Parallel linear algebra routines
   Shared memory     :  Shared parallel matrices
   BLAS/LAPACK       :  OpenBLAS 0.3.29  USE64BITINT DYNAMIC_ARCH NO_AFFINITY Zen SINGLE_THREADED
        Core in use  :  Zen
   Copyright (c) 2011-2014, The OpenBLAS Project


  ***********************************
  * Starting time: Wed Sep 10 13:40:53 2025
  * Host name:     wyk-Server
  * Process ID:    2318929
  * Working dir.:  /home/wyk/Documents/code/openQDC/MGMR/singlepointcalc/109/sp
  ***********************************

Your calculation utilizes the atom-pairwise dispersion correction
with the Becke-Johnson damping scheme (D3BJ)


Warning: RI is on but no J-basis has been assigned. Assigning Def2/J (nothing to worry about!)
================================================================================

----- Orbital basis set information -----
Your calculation utilizes the basis: def2-SVP
   F. Weigend and R. Ahlrichs, Phys. Chem. Chem. Phys. 7, 3297 (2005).

----- AuxJ basis set information -----
Your calculation utilizes the auxiliary basis: def2/J
   H-Rn: F. Weigend, Phys. Chem. Chem. Phys. 8, 1057 (2006).
   Fr-Lr: K. Eichkorn, F. Weigend, O. Treutler, R. Ahlrichs; Theor. Chem. Acc. 97, 119 (1997).

================================================================================
                                        WARNINGS
                       Please study these warnings very carefully!
================================================================================


================================================================================
                                       INPUT FILE
================================================================================
NAME = orca.inp
|  1> ! B3LYP def2-SVP d3 EnGrad 
|  2> %pal nprocs 6 end 
|  3> *xyz 0 1 
|  4> C   -0.479764 0.988108 0.766651
|  5> O   -0.235587 2.114475 1.354431
|  6> Mg   1.688925 2.175911 1.154901
|  7> Br   3.451774 3.577034 1.904649
|  8> C   1.574276 0.410713 -0.134734
|  9> C   2.088865 -0.850444 0.217951
| 10> C   1.825365 0.8712 -1.446228
| 11> C   2.84158 -1.610661 -0.683944
| 12> H   1.887611 -1.26237 1.212542
| 13> C   2.588349 0.129244 -2.351918
| 14> H   1.396286 1.822709 -1.787686
| 15> C   3.092027 -1.119617 -1.970149
| 16> H   3.227912 -2.590164 -0.388658
| 17> H   2.77726 0.513726 -3.357979
| 18> H   3.67356 -1.714439 -2.67975
| 19> C   -1.223137 1.048985 -0.53469
| 20> C   -1.196272 0.027524 -1.501587
| 21> C   -1.992491 2.196852 -0.779171
| 22> C   -1.937185 0.147928 -2.674752
| 23> H   -0.555537 -0.842193 -1.353021
| 24> C   -2.740235 2.313036 -1.954435
| 25> H   -2.000556 2.988148 -0.02804
| 26> C   -2.716575 1.289418 -2.903511
| 27> H   -1.895891 -0.646486 -3.424267
| 28> H   -3.341632 3.208856 -2.127799
| 29> H   -3.29557 1.380937 -3.825914
| 30> C   -0.62471 -0.224447 1.642066
| 31> C   -1.426113 -1.326062 1.300262
| 32> C   0.030547 -0.238887 2.887028
| 33> C   -1.535739 -2.422527 2.159214
| 34> H   -1.987434 -1.324907 0.367678
| 35> C   -0.073953 -1.332575 3.743138
| 36> H   0.623331 0.624654 3.19742
| 37> C   -0.854075 -2.436156 3.377741
| 38> H   -2.166473 -3.267957 1.873724
| 39> H   0.449562 -1.323563 4.701895
| 40> H   -0.938303 -3.296002 4.046942
| 41> *
| 42> 
| 43>                          ****END OF INPUT****
================================================================================

                     *******************************
                     * Energy+Gradient Calculation *
                     *******************************

---------------------------------
CARTESIAN COORDINATES (ANGSTROEM)
---------------------------------
  C     -0.479764    0.988108    0.766651
  O     -0.235587    2.114475    1.354431
  Mg     1.688925    2.175911    1.154901
  Br     3.451774    3.577034    1.904649
  C      1.574276    0.410713   -0.134734
  C      2.088865   -0.850444    0.217951
  C      1.825365    0.871200   -1.446228
  C      2.841580   -1.610661   -0.683944
  H      1.887611   -1.262370    1.212542
  C      2.588349    0.129244   -2.351918
  H      1.396286    1.822709   -1.787686
  C      3.092027   -1.119617   -1.970149
  H      3.227912   -2.590164   -0.388658
  H      2.777260    0.513726   -3.357979
  H      3.673560   -1.714439   -2.679750
  C     -1.223137    1.048985   -0.534690
  C     -1.196272    0.027524   -1.501587
  C     -1.992491    2.196852   -0.779171
  C     -1.937185    0.147928   -2.674752
  H     -0.555537   -0.842193   -1.353021
  C     -2.740235    2.313036   -1.954435
  H     -2.000556    2.988148   -0.028040
  C     -2.716575    1.289418   -2.903511
  H     -1.895891   -0.646486   -3.424267
  H     -3.341632    3.208856   -2.127799
  H     -3.295570    1.380937   -3.825914
  C     -0.624710   -0.224447    1.642066
  C     -1.426113   -1.326062    1.300262
  C      0.030547   -0.238887    2.887028
  C     -1.535739   -2.422527    2.159214
  H     -1.987434   -1.324907    0.367678
  C     -0.073953   -1.332575    3.743138
  H      0.623331    0.624654    3.197420
  C     -0.854075   -2.436156    3.377741
  H     -2.166473   -3.267957    1.873724
  H      0.449562   -1.323563    4.701895
  H     -0.938303   -3.296002    4.046942

----------------------------
CARTESIAN COORDINATES (A.U.)
----------------------------
  NO LB      ZA    FRAG     MASS         X           Y           Z
   0 C     6.0000    0    12.011   -0.906623    1.867254    1.448760
   1 O     8.0000    0    15.999   -0.445195    3.995779    2.559504
   2 Mg   12.0000    0    24.305    3.191606    4.111876    2.182447
   3 Br   35.0000    0    79.900    6.522908    6.759615    3.599265
   4 C     6.0000    0    12.011    2.974950    0.776135   -0.254610
   5 C     6.0000    0    12.011    3.947383   -1.607106    0.411868
   6 C     6.0000    0    12.011    3.449440    1.646329   -2.732975
   7 C     6.0000    0    12.011    5.369808   -3.043708   -1.292467
   8 H     1.0000    0     1.008    3.567068   -2.385534    2.291372
   9 C     6.0000    0    12.011    4.891271    0.244236   -4.444481
  10 H     1.0000    0     1.008    2.638598    3.444421   -3.378237
  11 C     6.0000    0    12.011    5.843084   -2.115770   -3.723042
  12 H     1.0000    0     1.008    6.099870   -4.894701   -0.734457
  13 H     1.0000    0     1.008    5.248261    0.970801   -6.345661
  14 H     1.0000    0     1.008    6.942022   -3.239820   -5.063994
  15 C     6.0000    0    12.011   -2.311394    1.982294   -1.010418
  16 C     6.0000    0    12.011   -2.260626    0.052013   -2.837588
  17 C     6.0000    0    12.011   -3.765262    4.151449   -1.472420
  18 C     6.0000    0    12.011   -3.660749    0.279543   -5.054549
  19 H     1.0000    0     1.008   -1.049813   -1.591514   -2.556839
  20 C     6.0000    0    12.011   -5.178294    4.371005   -3.693347
  21 H     1.0000    0     1.008   -3.780503    5.646781   -0.052988
  22 C     6.0000    0    12.011   -5.133583    2.436647   -5.486841
  23 H     1.0000    0     1.008   -3.582715   -1.221681   -6.470927
  24 H     1.0000    0     1.008   -6.314769    6.063859   -4.020957
  25 H     1.0000    0     1.008   -6.227725    2.609593   -7.229930
  26 C     6.0000    0    12.011   -1.180531   -0.424143    3.103055
  27 C     6.0000    0    12.011   -2.694963   -2.505894    2.457139
  28 C     6.0000    0    12.011    0.057725   -0.451431    5.455692
  29 C     6.0000    0    12.011   -2.902126   -4.577913    4.080323
  30 H     1.0000    0     1.008   -3.755706   -2.503711    0.694811
  31 C     6.0000    0    12.011   -0.139751   -2.518202    7.073506
  32 H     1.0000    0     1.008    1.177925    1.180425    6.042248
  33 C     6.0000    0    12.011   -1.613968   -4.603668    6.383005
  34 H     1.0000    0     1.008   -4.094041   -6.175544    3.540825
  35 H     1.0000    0     1.008    0.849549   -2.501172    8.885294
  36 H     1.0000    0     1.008   -1.773136   -6.228541    7.647612

--------------------------------
INTERNAL COORDINATES (ANGSTROEM)
--------------------------------
 C      0   0   0     0.000000000000     0.00000000     0.00000000
 O      1   0   0     1.293758228734     0.00000000     0.00000000
 Mg     2   1   0     1.935802944811    99.69689526     0.00000000
 Br     3   2   1     2.373374037406   136.43585878   185.97945890
 C      3   2   1     2.189115530444    89.02959790     7.69302894
 C      5   3   2     1.407020087559   123.77531784   247.44935225
 C      5   3   2     1.412483796412   105.95017945   107.39656822
 C      6   5   3     1.399258499827   121.47678547   225.22002345
 H      6   5   3     1.095170059522   119.83931535    46.23769390
 C      7   5   3     1.397468306006   121.71684151   141.13588594
 H      7   5   3     1.098212971643   120.11251613   319.54404850
 C      8   6   5     1.399346708922   119.87213161   359.78763234
 H      8   6   5     1.093559492222   120.17437752   180.24606607
 H     10   7   5     1.093468111088   120.26025509   180.68674113
 H     12   8   6     1.093401765580   120.05309986   180.45419485
 C      1   2   3     1.499932606666   116.89585212   248.24643435
 C     16   1   2     1.406767255574   123.87497867   158.44701472
 C     16   1   2     1.403308656841   117.13323530   337.98751466
 C     17  16   1     1.392754577810   120.39913512   178.67030753
 H     17  16   1     1.090422329499   119.78295480   355.80339323
 C     18  16   1     1.397807311860   120.51386174   181.59577250
 H     18  16   1     1.091060118876   118.51257001     0.98095834
 C     21  18  16     1.396101306962   120.10362168   359.36581071
 H     19  17  16     1.092964561666   119.65044672   179.10883769
 H     21  18  16     1.092806890766   119.72978756   179.47494979
 H     23  21  18     1.092903578453   120.22351386   180.38024809
 C      1   2   3     1.502547967010   117.13555977    96.85784977
 C     27   1   2     1.404504307950   123.10811749   151.00164875
 C     27   1   2     1.406947273743   118.61338202   333.53921426
 C     28  27   1     1.397158507259   120.71010507   180.67799747
 H     28  27   1     1.088483126246   120.12745579   359.39721956
 C     29  27   1     1.392838118176   121.13136741   179.64496875
 H     29  27   1     1.092446393651   119.73671763     0.36050716
 C     30  28  27     1.396302119266   120.38887048     0.37213646
 H     30  28  27     1.092740501563   119.46156249   179.88663589
 H     32  29  27     1.092412081780   119.80284266   179.58267935
 H     34  30  28     1.092821796132   120.29476810   180.20174305

---------------------------
INTERNAL COORDINATES (A.U.)
---------------------------
 C      0   0   0     0.000000000000     0.00000000     0.00000000
 O      1   0   0     2.444848735815     0.00000000     0.00000000
 Mg     2   1   0     3.658137414932    99.69689526     0.00000000
 Br     3   2   1     4.485026944057   136.43585878   185.97945890
 C      3   2   1     4.136828828052    89.02959790     7.69302894
 C      5   3   2     2.658882630413   123.77531784   247.44935225
 C      5   3   2     2.669207543820   105.95017945   107.39656822
 C      6   5   3     2.644215355235   121.47678547   225.22002345
 H      6   5   3     2.069571482566   119.83931535    46.23769390
 C      7   5   3     2.640832379187   121.71684151   141.13588594
 H      7   5   3     2.075321753126   120.11251613   319.54404850
 C      8   6   5     2.644382046266   119.87213161   359.78763234
 H      8   6   5     2.066527951450   120.17437752   180.24606607
 H     10   7   5     2.066355266132   120.26025509   180.68674113
 H     12   8   6     2.066229891293   120.05309986   180.45419485
 C      1   2   3     2.834461845937   116.89585212   248.24643435
 C     16   1   2     2.658404847203   123.87497867   158.44701472
 C     16   1   2     2.651869042791   117.13323530   337.98751466
 C     17  16   1     2.631924723826   120.39913512   178.67030753
 H     17  16   1     2.060599573066   119.78295480   355.80339323
 C     18  16   1     2.641473007407   120.51386174   181.59577250
 H     18  16   1     2.061804820319   118.51257001     0.98095834
 C     21  18  16     2.638249125367   120.10362168   359.36581071
 H     19  17  16     2.065403695629   119.65044672   179.10883769
 H     21  18  16     2.065105740809   119.72978756   179.47494979
 H     23  21  18     2.065288454058   120.22351386   180.38024809
 C      1   2   3     2.839404160729   117.13555977    96.85784977
 C     27   1   2     2.654128495938   123.10811749   151.00164875
 C     27   1   2     2.658745032241   118.61338202   333.53921426
 C     28  27   1     2.640246944397   120.71010507   180.67799747
 H     28  27   1     2.056935009999   120.12745579   359.39721956
 C     29  27   1     2.632082592239   121.13136741   179.64496875
 H     29  27   1     2.064424499990   119.73671763     0.36050716
 C     30  28  27     2.638628605626   120.38887048     0.37213646
 H     30  28  27     2.064980283398   119.46156249   179.88663589
 H     32  29  27     2.064359659950   119.80284266   179.58267935
 H     34  30  28     2.065133907869   120.29476810   180.20174305

---------------------
BASIS SET INFORMATION
---------------------
There are 5 groups of distinct atoms

 Group   1 Type C   : 7s4p1d contracted to 3s2p1d pattern {511/31/1}
 Group   2 Type O   : 7s4p1d contracted to 3s2p1d pattern {511/31/1}
 Group   3 Type Mg  : 10s7p1d contracted to 4s3p1d pattern {5311/511/1}
 Group   4 Type Br  : 14s10p6d contracted to 5s4p3d pattern {63311/5311/411}
 Group   5 Type H   : 4s1p contracted to 2s1p pattern {31/1}

Atom   0C    basis set group =>   1
Atom   1O    basis set group =>   2
Atom   2Mg   basis set group =>   3
Atom   3Br   basis set group =>   4
Atom   4C    basis set group =>   1
Atom   5C    basis set group =>   1
Atom   6C    basis set group =>   1
Atom   7C    basis set group =>   1
Atom   8H    basis set group =>   5
Atom   9C    basis set group =>   1
Atom  10H    basis set group =>   5
Atom  11C    basis set group =>   1
Atom  12H    basis set group =>   5
Atom  13H    basis set group =>   5
Atom  14H    basis set group =>   5
Atom  15C    basis set group =>   1
Atom  16C    basis set group =>   1
Atom  17C    basis set group =>   1
Atom  18C    basis set group =>   1
Atom  19H    basis set group =>   5
Atom  20C    basis set group =>   1
Atom  21H    basis set group =>   5
Atom  22C    basis set group =>   1
Atom  23H    basis set group =>   5
Atom  24H    basis set group =>   5
Atom  25H    basis set group =>   5
Atom  26C    basis set group =>   1
Atom  27C    basis set group =>   1
Atom  28C    basis set group =>   1
Atom  29C    basis set group =>   1
Atom  30H    basis set group =>   5
Atom  31C    basis set group =>   1
Atom  32H    basis set group =>   5
Atom  33C    basis set group =>   1
Atom  34H    basis set group =>   5
Atom  35H    basis set group =>   5
Atom  36H    basis set group =>   5
---------------------------------
AUXILIARY/J BASIS SET INFORMATION
---------------------------------
There are 5 groups of distinct atoms

 Group   1 Type C   : 12s5p4d2f1g contracted to 6s4p3d1f1g pattern {711111/2111/211/2/1}
 Group   2 Type O   : 12s5p4d2f1g contracted to 6s4p3d1f1g pattern {711111/2111/211/2/1}
 Group   3 Type Mg  : 14s5p5d2f1g contracted to 8s4p4d1f1g pattern {71111111/2111/2111/2/1}
 Group   4 Type Br  : 19s5p5d3f1g contracted to 8s4p3d2f1g pattern {121111111/2111/311/21/1}
 Group   5 Type H   : 5s2p1d contracted to 3s1p1d pattern {311/2/1}

Atom   0C    basis set group =>   1
Atom   1O    basis set group =>   2
Atom   2Mg   basis set group =>   3
Atom   3Br   basis set group =>   4
Atom   4C    basis set group =>   1
Atom   5C    basis set group =>   1
Atom   6C    basis set group =>   1
Atom   7C    basis set group =>   1
Atom   8H    basis set group =>   5
Atom   9C    basis set group =>   1
Atom  10H    basis set group =>   5
Atom  11C    basis set group =>   1
Atom  12H    basis set group =>   5
Atom  13H    basis set group =>   5
Atom  14H    basis set group =>   5
Atom  15C    basis set group =>   1
Atom  16C    basis set group =>   1
Atom  17C    basis set group =>   1
Atom  18C    basis set group =>   1
Atom  19H    basis set group =>   5
Atom  20C    basis set group =>   1
Atom  21H    basis set group =>   5
Atom  22C    basis set group =>   1
Atom  23H    basis set group =>   5
Atom  24H    basis set group =>   5
Atom  25H    basis set group =>   5
Atom  26C    basis set group =>   1
Atom  27C    basis set group =>   1
Atom  28C    basis set group =>   1
Atom  29C    basis set group =>   1
Atom  30H    basis set group =>   5
Atom  31C    basis set group =>   1
Atom  32H    basis set group =>   5
Atom  33C    basis set group =>   1
Atom  34H    basis set group =>   5
Atom  35H    basis set group =>   5
Atom  36H    basis set group =>   5


           ************************************************************
           *        Program running with 6 parallel MPI-processes     *
           *              working on a common directory               *
           ************************************************************
------------------------------------------------------------------------------
                             ORCA STARTUP CALCULATIONS
                           -- RI-GTO INTEGRALS CHOSEN --
------------------------------------------------------------------------------
------------------------------------------------------------------------------
                   ___                                                        
                  /   \      - P O W E R E D   B Y -                         
                 /     \                                                     
                 |  |  |   _    _      __       _____    __    __             
                 |  |  |  | |  | |    /  \     |  _  \  |  |  /  |          
                  \  \/   | |  | |   /    \    | | | |  |  | /  /          
                 / \  \   | |__| |  /  /\  \   | |_| |  |  |/  /          
                |  |  |   |  __  | /  /__\  \  |    /   |      \           
                |  |  |   | |  | | |   __   |  |    \   |  |\   \          
                \     /   | |  | | |  |  |  |  | |\  \  |  | \   \       
                 \___/    |_|  |_| |__|  |__|  |_| \__\ |__|  \__/        
                                                                              
                      - O R C A' S   B I G   F R I E N D -                    
                                      &                                       
                       - I N T E G R A L  F E E D E R -                       
                                                                              
 v1 FN, 2020, v2 2021, v3 2022-2024                                           
------------------------------------------------------------------------------


----------------------
SHARK INTEGRAL PACKAGE
----------------------

Number of atoms                             ...     37
Number of basis functions                   ...    405
Number of shells                            ...    185
Maximum angular momentum                    ...      2
Integral batch strategy                     ... SHARK/LIBINT Hybrid
RI-J (if used) integral strategy            ... SPLIT-RIJ (Revised 2003 algorithm where possible)
Printlevel                                  ...      1
Contraction scheme used                     ... SEGMENTED contraction
Prescreening option                         ... SCHWARTZ
   Thresh                                   ... 2.500e-11
   Tcut                                     ... 2.500e-12
   Tpresel                                  ... 2.500e-12 
Coulomb Range Separation                    ... NOT USED
Exchange Range Separation                   ... NOT USED
Multipole approximations                    ... NOT USED
Finite Nucleus Model                        ... NOT USED
CABS basis                                  ... NOT available
Auxiliary Coulomb fitting basis             ... AVAILABLE
   # of basis functions in Aux-J            ...   1259
   # of shells in Aux-J                     ...    411
   Maximum angular momentum in Aux-J        ...      4
Auxiliary J/K fitting basis                 ... NOT available
Auxiliary Correlation fitting basis         ... NOT available
Auxiliary 'external' fitting basis          ... NOT available

Checking pre-screening integrals            ... done (  0.0 sec) Dimension = 185
   => SHARK Basis and OBASIS are compatible. Storing Pre-screening
Shell pair information
Shell pair cut-off parameter TPreSel        ...   2.5e-12
Total number of shell pairs                 ...     17205
Shell pairs after pre-screening             ...     13357
Total number of primitive shell pairs       ...     66434
Primitive shell pairs kept                  ...     32030
          la=0 lb=0:   3926 shell pairs
          la=1 lb=0:   4906 shell pairs
          la=1 lb=1:   1579 shell pairs
          la=2 lb=0:   1693 shell pairs
          la=2 lb=1:   1072 shell pairs
          la=2 lb=2:    181 shell pairs

Checking whether 4 symmetric matrices of dimension 405 fit in memory
:Max Core in MB      =   4096.00
 MB in use           =     20.12
 MB left             =   4075.88
 MB needed           =      2.51
 Data fit in memory  = YES
Calculating RI/J V-Matrix + Cholesky decomp.... done (  0.1 sec)
Calculating Nuclear repulsion               ... done (  0.0 sec) ENN=   2165.514161458244 Eh

Diagonalization of the overlap matrix:
Smallest eigenvalue                        ... 2.560e-04
Time for diagonalization                   ...    0.021 sec
Threshold for overlap eigenvalues          ... 1.000e-07
Number of eigenvalues below threshold      ... 0
Time for construction of square roots      ...    0.010 sec
Total time needed                          ...    0.034 sec

-------------------
DFT GRID GENERATION
-------------------

General Integration Accuracy     IntAcc      ... 4.388
Radial Grid Type                 RadialGrid  ... OptM3 with GC (2021)
Angular Grid (max. ang.)         AngularGrid ... 4 (Lebedev-302)
Angular grid pruning method      GridPruning ... 4 (adaptive)
Weight generation scheme         WeightScheme... mBecke (2022)
Basis function cutoff            BFCut       ... 1.0000e-11
Integration weight cutoff        WCut        ... 1.0000e-14
Partially contracted basis set               ... off
Rotationally invariant grid construction     ... off
Angular grids for H and He will be reduced by one unit
Core-polarized basis detected: some atoms will have their core
                               angular grid increased.

Total number of grid points                  ...   185086
Total number of batches                      ...     2913
Average number of points per batch           ...       63
Average number of grid points per atom       ...     5002

--------------------
COSX GRID GENERATION
--------------------

GRIDX 1
-------
General Integration Accuracy     IntAcc      ... 3.816
Radial Grid Type                 RadialGrid  ... OptM3 with GC (2021)
Angular Grid (max. ang.)         AngularGrid ... 1 (Lebedev-50)
Angular grid pruning method      GridPruning ... 4 (adaptive)
Weight generation scheme         WeightScheme... mBecke (2022)
Basis function cutoff            BFCut       ... 1.0000e-11
Integration weight cutoff        WCut        ... 1.0000e-14
Partially contracted basis set               ... on
Rotationally invariant grid construction     ... off
Angular grids for H and He will be reduced by one unit
Core-polarized basis detected: some atoms will have their core
                               angular grid increased.

Total number of grid points                  ...    29097
Total number of batches                      ...      242
Average number of points per batch           ...      120
Average number of grid points per atom       ...      786
UseSFitting                                  ... on

GRIDX 2
-------
General Integration Accuracy     IntAcc      ... 4.020
Radial Grid Type                 RadialGrid  ... OptM3 with GC (2021)
Angular Grid (max. ang.)         AngularGrid ... 2 (Lebedev-110)
Angular grid pruning method      GridPruning ... 4 (adaptive)
Weight generation scheme         WeightScheme... mBecke (2022)
Basis function cutoff            BFCut       ... 1.0000e-11
Integration weight cutoff        WCut        ... 1.0000e-14
Partially contracted basis set               ... on
Rotationally invariant grid construction     ... off
Angular grids for H and He will be reduced by one unit
Core-polarized basis detected: some atoms will have their core
                               angular grid increased.

Total number of grid points                  ...    53831
Total number of batches                      ...      439
Average number of points per batch           ...      122
Average number of grid points per atom       ...     1455
UseSFitting                                  ... on

GRIDX 3
-------
General Integration Accuracy     IntAcc      ... 4.338
Radial Grid Type                 RadialGrid  ... OptM3 with GC (2021)
Angular Grid (max. ang.)         AngularGrid ... 3 (Lebedev-194)
Angular grid pruning method      GridPruning ... 4 (adaptive)
Weight generation scheme         WeightScheme... mBecke (2022)
Basis function cutoff            BFCut       ... 1.0000e-11
Integration weight cutoff        WCut        ... 1.0000e-14
Partially contracted basis set               ... on
Rotationally invariant grid construction     ... off
Angular grids for H and He will be reduced by one unit
Core-polarized basis detected: some atoms will have their core
                               angular grid increased.

Total number of grid points                  ...   110850
Total number of batches                      ...      883
Average number of points per batch           ...      125
Average number of grid points per atom       ...     2996
UseSFitting                                  ... on
Grids setup in   2.5 sec
Initializing property integral containers    ... done (  0.0 sec)

SHARK setup successfully completed in   2.9 seconds

Maximum memory used throughout the entire STARTUP-calculation: 65.7 MB


           ************************************************************
           *        Program running with 6 parallel MPI-processes     *
           *              working on a common directory               *
           ************************************************************
-------------------------------------------------------------------------------
                                 ORCA GUESS
                   Start orbitals & Density for SCF / CASSCF
-------------------------------------------------------------------------------

------------
SCF SETTINGS
------------
Hamiltonian:
 Density Functional     Method          .... DFT(GTOs)
 Exchange Functional    Exchange        .... B88
   X-Alpha parameter    XAlpha          ....  0.666667
   Becke's b parameter  XBeta           ....  0.004200
 Correlation Functional Correlation     .... LYP
 LDA part of GGA corr.  LDAOpt          .... VWN-5
 Gradients option       PostSCFGGA      .... off
 Hybrid DFT is turned on
   Fraction HF Exchange ScalHFX         ....  0.200000
   Scaling of DF-GGA-X  ScalDFX         ....  0.720000
   Scaling of DF-GGA-C  ScalDFC         ....  0.810000
   Scaling of DF-LDA-C  ScalLDAC        ....  1.000000
   Perturbative correction              ....  0.000000
   NL short-range parameter             ....  4.800000
 RI-approximation to the Coulomb term is turned on
   Number of AuxJ basis functions       .... 1259
   RIJ-COSX (HFX calculated with COS-X)).... on


General Settings:
 Integral files         IntName         .... orca
 Hartree-Fock type      HFTyp           .... RHF
 Total Charge           Charge          ....    0
 Multiplicity           Mult            ....    1
 Number of Electrons    NEL             ....  184
 Basis Dimension        Dim             ....  405
 Nuclear Repulsion      ENuc            ....   2165.5141614582 Eh

Convergence Acceleration:
 AO-DIIS                CNVDIIS         .... on
   Start iteration      DIISMaxIt       ....    12
   Startup error        DIISStart       ....  0.200000
   # of expansion vecs  DIISMaxEq       ....     5
   Bias factor          DIISBfac        ....   1.050
   Max. coefficient     DIISMaxC        ....  10.000
 MO-DIIS                CNVKDIIS        .... off
 Trust-Rad. Augm. Hess. CNVTRAH         .... auto
   Auto Start mean grad. ratio tolernc. ....  1.125000
   Auto Start start iteration           ....    50
   Auto Start num. interpolation iter.  ....    10
   Max. Number of Micro iterations      ....    24
   Max. Number of Macro iterations      .... Maxiter - #DIIS iter
   Number of Davidson start vectors     ....     2
   Converg. threshold    (grad. norm)   ....   1.000e-05
   Grad. Scal. Fac. for Micro threshold ....   0.100
   Minimum threshold for Micro iter.    ....   1.000e-02
   NR start threshold (gradient norm)   ....   1.000e-04
   Initial trust radius                 ....   0.400
   Minimum AH scaling param. (alpha)    ....   1.000
   Maximum AH scaling param. (alpha)    .... 1000.000
   Quad. conv. algorithm                .... NR
   White noise on init. David. guess    .... on
   Maximum white noise                  ....   0.010
   Pseudo random numbers                .... off
   Inactive MOs                         .... canonical
   Orbital update algorithm             .... Taylor
   Preconditioner                       .... Diag
   Full preconditioner red. dimension   ....   250
 SOSCF                 CNVSOSCF           .... on
   Start iteration     SOSCFMaxIt         ....   150
   Startup grad/error  SOSCFStart         ....  0.003300
   Hessian update      SOSCFHessUp        .... L-BFGS
   Autom. constraints  SOSCFAutoConstrain .... off
 Level Shifting         CNVShift        .... on
   Level shift para.    LevelShift      ....    0.2500
   Turn off err/grad.   ShiftErr        ....    0.0010
 Zerner damping         CNVZerner       .... off
 Static damping         CNVDamp         .... on
   Fraction old density DampFac         ....    0.7000
   Max. Damping (<1)    DampMax         ....    0.9800
   Min. Damping (>=0)   DampMin         ....    0.0000
   Turn off err/grad.   DampErr         ....    0.1000

SCF Procedure:
 Maximum # iterations   MaxIter         ....   125
 SCF integral mode      SCFMode         .... Direct
   Integral package                     .... SHARK and LIBINT hybrid scheme
 Reset frequency        DirectResetFreq ....    20
 Integral Threshold     Thresh          ....  2.500e-11 Eh
 Primitive CutOff       TCut            ....  2.500e-12 Eh

Convergence Tolerance:
 Convergence Check Mode ConvCheckMode   .... Total+1el-Energy
 Convergence forced     ConvForced      .... 0
 Energy Change          TolE            ....  1.000e-08 Eh
 1-El. energy change                    ....  1.000e-05 Eh
 Orbital Gradient       TolG            ....  1.000e-05
 Orbital Rotation angle TolX            ....  1.000e-05
 DIIS Error             TolErr          ....  5.000e-07

------------------------------
INITIAL GUESS: MODEL POTENTIAL
------------------------------
Loading Hartree-Fock densities                     ... done
Calculating cut-offs                               ... done
Initializing the effective Hamiltonian             ... done
Setting up the integral package (SHARK)            ... done
Starting the Coulomb interaction                   ... done (   0.4 sec)
Making the grid                                    ... done (   0.3 sec)
Mapping shells                                     ... done
Starting the XC term evaluation                    ... done (   0.1 sec)
  promolecular density results
     # of electrons  =    183.997303009
     EX              =   -216.032988518
     EC              =     -6.787951843
     EX+EC           =   -222.820940360
Transforming the Hamiltonian                       ... done (   0.0 sec)
Diagonalizing the Hamiltonian                      ... done (   0.0 sec)
Back transforming the eigenvectors                 ... done (   0.0 sec)
Now organizing SCF variables                       ... done
                      ------------------
                      INITIAL GUESS DONE (   0.9 sec)
                      ------------------
             **** ENERGY FILE WAS UPDATED (orca.en.tmp) ****
Finished Guess after   1.1 sec
Maximum memory used throughout the entire GUESS-calculation: 25.9 MB


           ************************************************************
           *        Program running with 6 parallel MPI-processes     *
           *              working on a common directory               *
           ************************************************************

-------------------------------------------------------------------------------------------
                                      ORCA LEAN-SCF
                              memory conserving SCF solver
-------------------------------------------------------------------------------------------

----------------------------------------D-I-I-S--------------------------------------------
Iteration    Energy (Eh)           Delta-E    RMSDP     MaxDP     DIISErr   Damp  Time(sec)
-------------------------------------------------------------------------------------------
               ***  Starting incremental Fock matrix formation  ***
    1    -3580.5232564752168400     0.00e+00  5.86e-03  8.52e-02  2.70e-01  0.700   5.3
    2    -3580.7305115408462370    -2.07e-01  4.07e-03  4.86e-02  1.08e-01  0.700   2.8
                               ***Turning on AO-DIIS***
    3    -3580.8178286773072614    -8.73e-02  1.90e-03  1.96e-02  2.76e-02  0.700   2.8
    4    -3580.8694833515064602    -5.17e-02  3.50e-03  2.96e-02  1.74e-02  0.000   2.7
    5    -3580.9808954064837963    -1.11e-01  5.14e-04  1.09e-02  5.27e-03  0.000   2.9
                              *** Initializing SOSCF ***
---------------------------------------S-O-S-C-F--------------------------------------
Iteration    Energy (Eh)           Delta-E    RMSDP     MaxDP     MaxGrad    Time(sec)
--------------------------------------------------------------------------------------
    6    -3580.9815928091711612    -6.97e-04  1.84e-04  2.35e-03  1.81e-03     2.5
               *** Restarting incremental Fock matrix formation ***
    7    -3580.9817145183451430    -1.22e-04  1.79e-04  3.46e-03  3.37e-04     5.2
    8    -3580.9816896780785100     2.48e-05  9.95e-05  2.47e-03  7.97e-04     3.5
    9    -3580.9817273472726811    -3.77e-05  3.56e-05  5.53e-04  8.09e-05     3.4
   10    -3580.9817266514592120     6.96e-07  2.08e-05  2.92e-04  1.34e-04     3.1
   11    -3580.9817279320259331    -1.28e-06  1.20e-05  2.26e-04  3.65e-05     2.9
   12    -3580.9817278675145644     6.45e-08  7.29e-06  1.33e-04  4.44e-05     2.7
   13    -3580.9817279982235050    -1.31e-07  2.60e-06  4.45e-05  4.46e-06     2.5
   14    -3580.9817279847338796     1.35e-08  1.64e-06  3.20e-05  7.31e-06     2.0
   15    -3580.9817280058477991    -2.11e-08  4.78e-07  6.84e-06  1.14e-06     1.9
                  *** Gradient check signals convergence ***

               *****************************************************
               *                     SUCCESS                       *
               *           SCF CONVERGED AFTER  15 CYCLES          *
               *****************************************************

Recomputing exchange energy using gridx3       ... done (    8.387 sec)
Old exchange energy                            :    -43.495718608 Eh
New exchange energy                            :    -43.495683540 Eh
Exchange energy change after final integration :      0.000035068 Eh
Total energy after final integration           :  -3580.981692919 Eh
             **** ENERGY FILE WAS UPDATED (orca.en.tmp) ****

----------------
TOTAL SCF ENERGY
----------------

Total Energy       :      -3580.98169291907789 Eh          -97443.46579 eV

Components:
Nuclear Repulsion  :       2165.51416145824351 Eh           58926.63611 eV
Electronic Energy  :      -5746.49588944551761 Eh         -156370.10285 eV
One Electron Energy:      -9265.19993948199226 Eh         -252118.90783 eV
Two Electron Energy:       3518.70405003647511 Eh           95748.80498 eV

Virial components:
Potential Energy   :      -7149.42027490305736 Eh         -194545.61619 eV
Kinetic Energy     :       3568.43858198397902 Eh           97102.15039 eV
Virial Ratio       :          2.00351501382101

DFT components:
N(Alpha)           :       91.999879895559 electrons
N(Beta)            :       91.999879895559 electrons
N(Total)           :      183.999759791117 electrons
E(X)               :     -172.886919904025 Eh       
E(C)               :       -7.977641407043 Eh       
E(XC)              :     -180.864561311068 Eh       

---------------
SCF CONVERGENCE
---------------

  Last Energy change         ...    2.1114e-08  Tolerance :   1.0000e-08
  Last MAX-Density change    ...    6.8397e-06  Tolerance :   1.0000e-07
  Last RMS-Density change    ...    4.7820e-07  Tolerance :   5.0000e-09
  Last DIIS Error            ...    1.8118e-03  Tolerance :   5.0000e-07
  Last Orbital Gradient      ...    1.1429e-06  Tolerance :   1.0000e-05
  Last Orbital Rotation      ...    3.6673e-06  Tolerance :   1.0000e-05


----------------
ORBITAL ENERGIES
----------------

  NO   OCC          E(Eh)            E(eV) 
   0   2.0000    -482.727641    -13135.6869 
   1   2.0000     -62.410699     -1698.2814 
   2   2.0000     -56.241444     -1530.4075 
   3   2.0000     -56.240797     -1530.3899 
   4   2.0000     -56.240748     -1530.3886 
   5   2.0000     -46.844726     -1274.7098 
   6   2.0000     -19.124918      -520.4155 
   7   2.0000     -10.306890      -280.4647 
   8   2.0000     -10.213622      -277.9268 
   9   2.0000     -10.209272      -277.8084 
  10   2.0000     -10.208529      -277.7882 
  11   2.0000     -10.207798      -277.7683 
  12   2.0000     -10.207439      -277.7585 
  13   2.0000     -10.207118      -277.7498 
  14   2.0000     -10.206281      -277.7270 
  15   2.0000     -10.203878      -277.6616 
  16   2.0000     -10.203458      -277.6502 
  17   2.0000     -10.202017      -277.6110 
  18   2.0000     -10.201113      -277.5864 
  19   2.0000     -10.200629      -277.5732 
  20   2.0000     -10.199528      -277.5433 
  21   2.0000     -10.198595      -277.5179 
  22   2.0000     -10.195895      -277.4444 
  23   2.0000     -10.195575      -277.4357 
  24   2.0000     -10.194867      -277.4164 
  25   2.0000     -10.173196      -276.8267 
  26   2.0000      -8.628078      -234.7819 
  27   2.0000      -6.455821      -175.6718 
  28   2.0000      -6.451738      -175.5607 
  29   2.0000      -6.451420      -175.5521 
  30   2.0000      -3.128639       -85.1346 
  31   2.0000      -2.571167       -69.9650 
  32   2.0000      -2.569959       -69.9321 
  33   2.0000      -2.569797       -69.9277 
  34   2.0000      -2.566476       -69.8374 
  35   2.0000      -2.566451       -69.8367 
  36   2.0000      -1.877370       -51.0858 
  37   2.0000      -1.874215       -51.0000 
  38   2.0000      -1.873481       -50.9800 
  39   2.0000      -1.026086       -27.9212 
  40   2.0000      -0.867452       -23.6046 
  41   2.0000      -0.859796       -23.3962 
  42   2.0000      -0.845827       -23.0161 
  43   2.0000      -0.780295       -21.2329 
  44   2.0000      -0.757773       -20.6201 
  45   2.0000      -0.752028       -20.4637 
  46   2.0000      -0.748534       -20.3686 
  47   2.0000      -0.739918       -20.1342 
  48   2.0000      -0.732047       -19.9200 
  49   2.0000      -0.704327       -19.1657 
  50   2.0000      -0.662628       -18.0310 
  51   2.0000      -0.621917       -16.9232 
  52   2.0000      -0.615693       -16.7539 
  53   2.0000      -0.606294       -16.4981 
  54   2.0000      -0.598153       -16.2766 
  55   2.0000      -0.589261       -16.0346 
  56   2.0000      -0.567588       -15.4449 
  57   2.0000      -0.538320       -14.6484 
  58   2.0000      -0.517412       -14.0795 
  59   2.0000      -0.514702       -14.0058 
  60   2.0000      -0.480854       -13.0847 
  61   2.0000      -0.478520       -13.0212 
  62   2.0000      -0.466274       -12.6880 
  63   2.0000      -0.457458       -12.4481 
  64   2.0000      -0.451498       -12.2859 
  65   2.0000      -0.449252       -12.2248 
  66   2.0000      -0.446375       -12.1465 
  67   2.0000      -0.440264       -11.9802 
  68   2.0000      -0.437854       -11.9146 
  69   2.0000      -0.434414       -11.8210 
  70   2.0000      -0.425428       -11.5765 
  71   2.0000      -0.424057       -11.5392 
  72   2.0000      -0.384843       -10.4721 
  73   2.0000      -0.381797       -10.3892 
  74   2.0000      -0.379027       -10.3139 
  75   2.0000      -0.377744       -10.2789 
  76   2.0000      -0.370270       -10.0756 
  77   2.0000      -0.367157        -9.9908 
  78   2.0000      -0.357895        -9.7388 
  79   2.0000      -0.353844        -9.6286 
  80   2.0000      -0.345109        -9.3909 
  81   2.0000      -0.301251        -8.1975 
  82   2.0000      -0.290456        -7.9037 
  83   2.0000      -0.279003        -7.5921 
  84   2.0000      -0.274855        -7.4792 
  85   2.0000      -0.271094        -7.3768 
  86   2.0000      -0.266716        -7.2577 
  87   2.0000      -0.263736        -7.1766 
  88   2.0000      -0.257126        -6.9968 
  89   2.0000      -0.253945        -6.9102 
  90   2.0000      -0.250835        -6.8256 
  91   2.0000      -0.229719        -6.2510 
  92   0.0000      -0.092011        -2.5038 
  93   0.0000      -0.031939        -0.8691 
  94   0.0000      -0.029218        -0.7951 
  95   0.0000      -0.020599        -0.5605 
  96   0.0000      -0.015239        -0.4147 
  97   0.0000      -0.012443        -0.3386 
  98   0.0000       0.001113         0.0303 
  99   0.0000       0.027374         0.7449 
 100   0.0000       0.031284         0.8513 
 101   0.0000       0.059763         1.6262 
 102   0.0000       0.061770         1.6809 
*Only the first 10 virtual orbitals were printed.

                    ********************************
                    * MULLIKEN POPULATION ANALYSIS *
                    ********************************

-----------------------
MULLIKEN ATOMIC CHARGES
-----------------------
   0 C :    0.291639
   1 O :   -0.459044
   2 Mg:    0.536088
   3 Br:   -0.312257
   4 C :   -0.422291
   5 C :    0.041137
   6 C :    0.092029
   7 C :    0.032075
   8 H :   -0.003957
   9 C :    0.027702
  10 H :    0.011189
  11 C :    0.018658
  12 H :   -0.019000
  13 H :   -0.017809
  14 H :   -0.010607
  15 C :   -0.029379
  16 C :    0.039363
  17 C :    0.016280
  18 C :    0.001903
  19 H :    0.002833
  20 C :    0.021554
  21 H :    0.004521
  22 C :    0.035483
  23 H :   -0.013046
  24 H :   -0.010878
  25 H :   -0.010143
  26 C :    0.105503
  27 C :   -0.009353
  28 C :   -0.030565
  29 C :    0.023565
  30 H :   -0.007717
  31 C :    0.026650
  32 H :    0.022338
  33 C :    0.032670
  34 H :   -0.011643
  35 H :   -0.008554
  36 H :   -0.006934
Sum of atomic charges:    0.0000000

--------------------------------
MULLIKEN REDUCED ORBITAL CHARGES
--------------------------------
  0 C s       :     3.103983  s :     3.103983
      pz      :     0.926162  p :     2.517303
      px      :     0.747389
      py      :     0.843752
      dz2     :     0.017471  d :     0.087075
      dxz     :     0.011773
      dyz     :     0.024849
      dx2y2   :     0.017723
      dxy     :     0.015260

  1 O s       :     3.825630  s :     3.825630
      pz      :     1.655876  p :     4.620299
      px      :     1.593752
      py      :     1.370670
      dz2     :     0.001747  d :     0.013116
      dxz     :     0.000995
      dyz     :     0.004187
      dx2y2   :     0.003488
      dxy     :     0.002698

  2 Mgs       :     4.524833  s :     4.524833
      pz      :     2.182185  p :     6.609276
      px      :     2.215332
      py      :     2.211759
      dz2     :     0.049222  d :     0.329803
      dxz     :     0.082683
      dyz     :     0.037804
      dx2y2   :     0.087226
      dxy     :     0.072868

  3 Brs       :     7.904727  s :     7.904727
      pz      :     5.842433  p :    17.397259
      px      :     5.754640
      py      :     5.800186
      dz2     :     2.001287  d :    10.010272
      dxz     :     2.001922
      dyz     :     2.001243
      dx2y2   :     2.001836
      dxy     :     2.003984

  4 C s       :     3.264603  s :     3.264603
      pz      :     1.056673  p :     3.126803
      px      :     0.980541
      py      :     1.089589
      dz2     :     0.008790  d :     0.030885
      dxz     :     0.004983
      dyz     :     0.006686
      dx2y2   :     0.004985
      dxy     :     0.005441

  5 C s       :     3.209133  s :     3.209133
      pz      :     0.852318  p :     2.713499
      px      :     0.925945
      py      :     0.935236
      dz2     :     0.008260  d :     0.036230
      dxz     :     0.004424
      dyz     :     0.011105
      dx2y2   :     0.006073
      dxy     :     0.006369

  6 C s       :     3.157052  s :     3.157052
      pz      :     0.888975  p :     2.714389
      px      :     0.928618
      py      :     0.896796
      dz2     :     0.009578  d :     0.036531
      dxz     :     0.007588
      dyz     :     0.010470
      dx2y2   :     0.004755
      dxy     :     0.004140

  7 C s       :     3.164028  s :     3.164028
      pz      :     0.946967  p :     2.769185
      px      :     0.965315
      py      :     0.856904
      dz2     :     0.009705  d :     0.034712
      dxz     :     0.006765
      dyz     :     0.009105
      dx2y2   :     0.004673
      dxy     :     0.004463

  8 H s       :     0.980778  s :     0.980778
      pz      :     0.013083  p :     0.023179
      px      :     0.004734
      py      :     0.005362

  9 C s       :     3.169221  s :     3.169221
      pz      :     0.850682  p :     2.768347
      px      :     0.979867
      py      :     0.937798
      dz2     :     0.008443  d :     0.034729
      dxz     :     0.004613
      dyz     :     0.009159
      dx2y2   :     0.006279
      dxy     :     0.006235

 10 H s       :     0.966276  s :     0.966276
      pz      :     0.004845  p :     0.022535
      px      :     0.006045
      py      :     0.011644

 11 C s       :     3.166037  s :     3.166037
      pz      :     0.918148  p :     2.780475
      px      :     0.931059
      py      :     0.931268
      dz2     :     0.007901  d :     0.034831
      dxz     :     0.006224
      dyz     :     0.010385
      dx2y2   :     0.004729
      dxy     :     0.005592

 12 H s       :     0.996385  s :     0.996385
      pz      :     0.004264  p :     0.022616
      px      :     0.005620
      py      :     0.012732

 13 H s       :     0.995117  s :     0.995117
      pz      :     0.013183  p :     0.022692
      px      :     0.004551
      py      :     0.004958

 14 H s       :     0.987987  s :     0.987987
      pz      :     0.008263  p :     0.022620
      px      :     0.007438
      py      :     0.006919

 15 C s       :     3.086174  s :     3.086174
      pz      :     0.971618  p :     2.904129
      px      :     0.974620
      py      :     0.957891
      dz2     :     0.008749  d :     0.039076
      dxz     :     0.006905
      dyz     :     0.009178
      dx2y2   :     0.007427
      dxy     :     0.006816

 16 C s       :     3.200890  s :     3.200890
      pz      :     0.944796  p :     2.725061
      px      :     0.898549
      py      :     0.881716
      dz2     :     0.009108  d :     0.034686
      dxz     :     0.006408
      dyz     :     0.008689
      dx2y2   :     0.004403
      dxy     :     0.006079

 17 C s       :     3.240250  s :     3.240250
      pz      :     0.845703  p :     2.708995
      px      :     0.953962
      py      :     0.909331
      dz2     :     0.007280  d :     0.034475
      dxz     :     0.005526
      dyz     :     0.009561
      dx2y2   :     0.006336
      dxy     :     0.005772

 18 C s       :     3.174177  s :     3.174177
      pz      :     0.918465  p :     2.789128
      px      :     0.977070
      py      :     0.893593
      dz2     :     0.007226  d :     0.034792
      dxz     :     0.005856
      dyz     :     0.009748
      dx2y2   :     0.006420
      dxy     :     0.005542

 19 H s       :     0.973783  s :     0.973783
      pz      :     0.003880  p :     0.023384
      px      :     0.008568
      py      :     0.010936

 20 C s       :     3.166922  s :     3.166922
      pz      :     0.955809  p :     2.776824
      px      :     0.942397
      py      :     0.878618
      dz2     :     0.009189  d :     0.034701
      dxz     :     0.006349
      dyz     :     0.008630
      dx2y2   :     0.004465
      dxy     :     0.006067

 21 H s       :     0.971932  s :     0.971932
      pz      :     0.009748  p :     0.023547
      px      :     0.004164
      py      :     0.009636

 22 C s       :     3.164405  s :     3.164405
      pz      :     0.872772  p :     2.765168
      px      :     0.930078
      py      :     0.962317
      dz2     :     0.007191  d :     0.034945
      dxz     :     0.005890
      dyz     :     0.008386
      dx2y2   :     0.006848
      dxy     :     0.006630

 23 H s       :     0.990338  s :     0.990338
      pz      :     0.008998  p :     0.022708
      px      :     0.004098
      py      :     0.009612

 24 H s       :     0.988147  s :     0.988147
      pz      :     0.003842  p :     0.022731
      px      :     0.007563
      py      :     0.011326

 25 H s       :     0.987494  s :     0.987494
      pz      :     0.011767  p :     0.022649
      px      :     0.007276
      py      :     0.003606

 26 C s       :     3.075471  s :     3.075471
      pz      :     0.923631  p :     2.779798
      px      :     0.949452
      py      :     0.906715
      dz2     :     0.008094  d :     0.039228
      dxz     :     0.006908
      dyz     :     0.010905
      dx2y2   :     0.007402
      dxy     :     0.005918

 27 C s       :     3.224924  s :     3.224924
      pz      :     0.859712  p :     2.750057
      px      :     0.933110
      py      :     0.957235
      dz2     :     0.006986  d :     0.034372
      dxz     :     0.005548
      dyz     :     0.007957
      dx2y2   :     0.006954
      dxy     :     0.006926

 28 C s       :     3.227219  s :     3.227219
      pz      :     0.966753  p :     2.768833
      px      :     0.946003
      py      :     0.856078
      dz2     :     0.009284  d :     0.034512
      dxz     :     0.006145
      dyz     :     0.008744
      dx2y2   :     0.004263
      dxy     :     0.006076

 29 C s       :     3.162361  s :     3.162361
      pz      :     0.947446  p :     2.779278
      px      :     0.934164
      py      :     0.897668
      dz2     :     0.008926  d :     0.034796
      dxz     :     0.006262
      dyz     :     0.009037
      dx2y2   :     0.004411
      dxy     :     0.006161

 30 H s       :     0.983715  s :     0.983715
      pz      :     0.012879  p :     0.024002
      px      :     0.007428
      py      :     0.003696

 31 C s       :     3.169044  s :     3.169044
      pz      :     0.869864  p :     2.769384
      px      :     0.939192
      py      :     0.960328
      dz2     :     0.007354  d :     0.034922
      dxz     :     0.005515
      dyz     :     0.008524
      dx2y2   :     0.006866
      dxy     :     0.006664

 32 H s       :     0.954465  s :     0.954465
      pz      :     0.004935  p :     0.023197
      px      :     0.007020
      py      :     0.011242

 33 C s       :     3.165538  s :     3.165538
      pz      :     0.918856  p :     2.766889
      px      :     0.963220
      py      :     0.884812
      dz2     :     0.007433  d :     0.034903
      dxz     :     0.005906
      dyz     :     0.009915
      dx2y2   :     0.006344
      dxy     :     0.005305

 34 H s       :     0.988893  s :     0.988893
      pz      :     0.004327  p :     0.022750
      px      :     0.007935
      py      :     0.010488

 35 H s       :     0.985784  s :     0.985784
      pz      :     0.012549  p :     0.022770
      px      :     0.006740
      py      :     0.003481

 36 H s       :     0.984262  s :     0.984262
      pz      :     0.007897  p :     0.022672
      px      :     0.004090
      py      :     0.010685



                     *******************************
                     * LOEWDIN POPULATION ANALYSIS *
                     *******************************

----------------------
LOEWDIN ATOMIC CHARGES
----------------------
   0 C :    0.203154
   1 O :   -0.178222
   2 Mg:   -0.265284
   3 Br:    0.073751
   4 C :   -0.144079
   5 C :    0.007541
   6 C :    0.020649
   7 C :   -0.025110
   8 H :    0.029632
   9 C :   -0.023015
  10 H :    0.041933
  11 C :   -0.011390
  12 H :    0.026746
  13 H :    0.027764
  14 H :    0.028599
  15 C :   -0.037017
  16 C :   -0.002749
  17 C :    0.006019
  18 C :   -0.026802
  19 H :    0.034178
  20 C :   -0.024166
  21 H :    0.037804
  22 C :   -0.012950
  23 H :    0.029650
  24 H :    0.030403
  25 H :    0.029474
  26 C :   -0.020717
  27 C :   -0.004589
  28 C :    0.014363
  29 C :   -0.019724
  30 H :    0.032425
  31 C :   -0.018220
  32 H :    0.056651
  33 C :   -0.010907
  34 H :    0.030795
  35 H :    0.032438
  36 H :    0.030967

-------------------------------
LOEWDIN REDUCED ORBITAL CHARGES
-------------------------------
  0 C s       :     2.857595  s :     2.857595
      pz      :     0.992756  p :     2.742437
      px      :     0.783183
      py      :     0.966497
      dz2     :     0.037743  d :     0.196815
      dxz     :     0.027660
      dyz     :     0.058721
      dx2y2   :     0.041650
      dxy     :     0.031041

  1 O s       :     3.451993  s :     3.451993
      pz      :     1.655268  p :     4.702459
      px      :     1.590751
      py      :     1.456439
      dz2     :     0.002856  d :     0.023769
      dxz     :     0.001444
      dyz     :     0.008408
      dx2y2   :     0.007203
      dxy     :     0.003858

  2 Mgs       :     4.460817  s :     4.460817
      pz      :     2.255570  p :     6.977835
      px      :     2.378676
      py      :     2.343590
      dz2     :     0.118128  d :     0.826632
      dxz     :     0.165792
      dyz     :     0.129702
      dx2y2   :     0.226256
      dxy     :     0.186755

  3 Brs       :     7.693680  s :     7.693680
      pz      :     5.770962  p :    17.223758
      px      :     5.712231
      py      :     5.740565
      dz2     :     2.001058  d :    10.008810
      dxz     :     2.001556
      dyz     :     2.001027
      dx2y2   :     2.001034
      dxy     :     2.004136

  4 C s       :     2.924404  s :     2.924404
      pz      :     1.105023  p :     3.144999
      px      :     0.941270
      py      :     1.098706
      dz2     :     0.022623  d :     0.074676
      dxz     :     0.010293
      dyz     :     0.018119
      dx2y2   :     0.011487
      dxy     :     0.012153

  5 C s       :     2.859580  s :     2.859580
      pz      :     1.022918  p :     3.038377
      px      :     0.976261
      py      :     1.039197
      dz2     :     0.021744  d :     0.094501
      dxz     :     0.011271
      dyz     :     0.029672
      dx2y2   :     0.014619
      dxy     :     0.017194

  6 C s       :     2.852319  s :     2.852319
      pz      :     1.049268  p :     3.031807
      px      :     0.978048
      py      :     1.004491
      dz2     :     0.026583  d :     0.095225
      dxz     :     0.019601
      dyz     :     0.028123
      dx2y2   :     0.010377
      dxy     :     0.010541

  7 C s       :     2.865570  s :     2.865570
      pz      :     1.053376  p :     3.069452
      px      :     0.993651
      py      :     1.022426
      dz2     :     0.026349  d :     0.090088
      dxz     :     0.017351
      dyz     :     0.024918
      dx2y2   :     0.010514
      dxy     :     0.010956

  8 H s       :     0.902728  s :     0.902728
      pz      :     0.038635  p :     0.067640
      px      :     0.013834
      py      :     0.015171

  9 C s       :     2.864686  s :     2.864686
      pz      :     1.028286  p :     3.068045
      px      :     0.998811
      py      :     1.040948
      dz2     :     0.022113  d :     0.090284
      dxz     :     0.011737
      dyz     :     0.024785
      dx2y2   :     0.015254
      dxy     :     0.016395

 10 H s       :     0.892021  s :     0.892021
      pz      :     0.013703  p :     0.066046
      px      :     0.017415
      py      :     0.034928

 11 C s       :     2.866517  s :     2.866517
      pz      :     1.044764  p :     3.055270
      px      :     0.972688
      py      :     1.037818
      dz2     :     0.021448  d :     0.089603
      dxz     :     0.014806
      dyz     :     0.028293
      dx2y2   :     0.011406
      dxy     :     0.013650

 12 H s       :     0.906466  s :     0.906466
      pz      :     0.013426  p :     0.066788
      px      :     0.016930
      py      :     0.036432

 13 H s       :     0.905337  s :     0.905337
      pz      :     0.037682  p :     0.066899
      px      :     0.014026
      py      :     0.015191

 14 H s       :     0.904949  s :     0.904949
      pz      :     0.024294  p :     0.066452
      px      :     0.021569
      py      :     0.020589

 15 C s       :     2.855552  s :     2.855552
      pz      :     1.019218  p :     3.077984
      px      :     1.000257
      py      :     1.058509
      dz2     :     0.023384  d :     0.103482
      dxz     :     0.018171
      dyz     :     0.025903
      dx2y2   :     0.018112
      dxy     :     0.017911

 16 C s       :     2.862897  s :     2.862897
      pz      :     1.040739  p :     3.049401
      px      :     0.989882
      py      :     1.018780
      dz2     :     0.024159  d :     0.090450
      dxz     :     0.016898
      dyz     :     0.023883
      dx2y2   :     0.010430
      dxy     :     0.015081

 17 C s       :     2.862280  s :     2.862280
      pz      :     1.030004  p :     3.042216
      px      :     0.987872
      py      :     1.024340
      dz2     :     0.018815  d :     0.089485
      dxz     :     0.014959
      dyz     :     0.025346
      dx2y2   :     0.015066
      dxy     :     0.015299

 18 C s       :     2.861767  s :     2.861767
      pz      :     1.034979  p :     3.074794
      px      :     1.008220
      py      :     1.031596
      dz2     :     0.018937  d :     0.090241
      dxz     :     0.015803
      dyz     :     0.025407
      dx2y2   :     0.015243
      dxy     :     0.014851

 19 H s       :     0.896645  s :     0.896645
      pz      :     0.012500  p :     0.069177
      px      :     0.024286
      py      :     0.032391

 20 C s       :     2.862124  s :     2.862124
      pz      :     1.045317  p :     3.071944
      px      :     0.997924
      py      :     1.028703
      dz2     :     0.023971  d :     0.090098
      dxz     :     0.016625
      dyz     :     0.024121
      dx2y2   :     0.010729
      dxy     :     0.014652

 21 H s       :     0.891643  s :     0.891643
      pz      :     0.029125  p :     0.070553
      px      :     0.012912
      py      :     0.028516

 22 C s       :     2.865161  s :     2.865161
      pz      :     1.023954  p :     3.057758
      px      :     0.987045
      py      :     1.046759
      dz2     :     0.018402  d :     0.090032
      dxz     :     0.014144
      dyz     :     0.023154
      dx2y2   :     0.016981
      dxy     :     0.017351

 23 H s       :     0.903723  s :     0.903723
      pz      :     0.025979  p :     0.066626
      px      :     0.012757
      py      :     0.027891

 24 H s       :     0.902905  s :     0.902905
      pz      :     0.012178  p :     0.066692
      px      :     0.022129
      py      :     0.032385

 25 H s       :     0.903873  s :     0.903873
      pz      :     0.033661  p :     0.066653
      px      :     0.021309
      py      :     0.011683

 26 C s       :     2.854415  s :     2.854415
      pz      :     1.030975  p :     3.062415
      px      :     1.005530
      py      :     1.025911
      dz2     :     0.022255  d :     0.103886
      dxz     :     0.017931
      dyz     :     0.029957
      dx2y2   :     0.018114
      dxy     :     0.015630

 27 C s       :     2.861865  s :     2.861865
      pz      :     1.027286  p :     3.053129
      px      :     0.990859
      py      :     1.034983
      dz2     :     0.017957  d :     0.089595
      dxz     :     0.013654
      dyz     :     0.022303
      dx2y2   :     0.017649
      dxy     :     0.018032

 28 C s       :     2.855128  s :     2.855128
      pz      :     1.036012  p :     3.040939
      px      :     0.981536
      py      :     1.023392
      dz2     :     0.024336  d :     0.089570
      dxz     :     0.015668
      dyz     :     0.024655
      dx2y2   :     0.010428
      dxy     :     0.014484

 29 C s       :     2.861842  s :     2.861842
      pz      :     1.044197  p :     3.067658
      px      :     0.993628
      py      :     1.029834
      dz2     :     0.023467  d :     0.090223
      dxz     :     0.016199
      dyz     :     0.025014
      dx2y2   :     0.010708
      dxy     :     0.014836

 30 H s       :     0.895758  s :     0.895758
      pz      :     0.038005  p :     0.071817
      px      :     0.021827
      py      :     0.011985

 31 C s       :     2.861675  s :     2.861675
      pz      :     1.025814  p :     3.066083
      px      :     0.993190
      py      :     1.047079
      dz2     :     0.018858  d :     0.090462
      dxz     :     0.013204
      dyz     :     0.023647
      dx2y2   :     0.017177
      dxy     :     0.017576

 32 H s       :     0.873349  s :     0.873349
      pz      :     0.014644  p :     0.070000
      px      :     0.021979
      py      :     0.033376

 33 C s       :     2.864974  s :     2.864974
      pz      :     1.034978  p :     3.056010
      px      :     0.992287
      py      :     1.028745
      dz2     :     0.019381  d :     0.089923
      dxz     :     0.015837
      dyz     :     0.025810
      dx2y2   :     0.015002
      dxy     :     0.013893

 34 H s       :     0.902565  s :     0.902565
      pz      :     0.013552  p :     0.066641
      px      :     0.023126
      py      :     0.029963

 35 H s       :     0.900786  s :     0.900786
      pz      :     0.035602  p :     0.066775
      px      :     0.019936
      py      :     0.011238

 36 H s       :     0.902280  s :     0.902280
      pz      :     0.023196  p :     0.066753
      px      :     0.012768
      py      :     0.030789



                      *****************************
                      * MAYER POPULATION ANALYSIS *
                      *****************************

  NA   - Mulliken gross atomic population
  ZA   - Total nuclear charge
  QA   - Mulliken gross atomic charge
  VA   - Mayer's total valence
  BVA  - Mayer's bonded valence
  FA   - Mayer's free valence

  ATOM       NA         ZA         QA         VA         BVA        FA
  0 C      5.7084     6.0000     0.2916     3.7497     3.7497     0.0000
  1 O      8.4590     8.0000    -0.4590     2.0569     2.0569     0.0000
  2 Mg    11.4639    12.0000     0.5361     2.5256     2.5256    -0.0000
  3 Br    35.3123    35.0000    -0.3123     1.1723     1.1723     0.0000
  4 C      6.4223     6.0000    -0.4223     3.5398     3.5398    -0.0000
  5 C      5.9589     6.0000     0.0411     3.9051     3.9051     0.0000
  6 C      5.9080     6.0000     0.0920     3.8300     3.8300    -0.0000
  7 C      5.9679     6.0000     0.0321     3.8387     3.8387     0.0000
  8 H      1.0040     1.0000    -0.0040     0.9829     0.9829    -0.0000
  9 C      5.9723     6.0000     0.0277     3.8722     3.8722     0.0000
 10 H      0.9888     1.0000     0.0112     0.9716     0.9716     0.0000
 11 C      5.9813     6.0000     0.0187     3.8289     3.8289     0.0000
 12 H      1.0190     1.0000    -0.0190     0.9772     0.9772     0.0000
 13 H      1.0178     1.0000    -0.0178     0.9780     0.9780    -0.0000
 14 H      1.0106     1.0000    -0.0106     0.9775     0.9775     0.0000
 15 C      6.0294     6.0000    -0.0294     3.8077     3.8077     0.0000
 16 C      5.9606     6.0000     0.0394     3.8265     3.8265     0.0000
 17 C      5.9837     6.0000     0.0163     3.8659     3.8659    -0.0000
 18 C      5.9981     6.0000     0.0019     3.8497     3.8497     0.0000
 19 H      0.9972     1.0000     0.0028     0.9918     0.9918     0.0000
 20 C      5.9784     6.0000     0.0216     3.8047     3.8047    -0.0000
 21 H      0.9955     1.0000     0.0045     0.9978     0.9978    -0.0000
 22 C      5.9645     6.0000     0.0355     3.8139     3.8139     0.0000
 23 H      1.0130     1.0000    -0.0130     0.9784     0.9784     0.0000
 24 H      1.0109     1.0000    -0.0109     0.9789     0.9789     0.0000
 25 H      1.0101     1.0000    -0.0101     0.9779     0.9779     0.0000
 26 C      5.8945     6.0000     0.1055     3.7668     3.7668    -0.0000
 27 C      6.0094     6.0000    -0.0094     3.8512     3.8512    -0.0000
 28 C      6.0306     6.0000    -0.0306     3.8544     3.8544     0.0000
 29 C      5.9764     6.0000     0.0236     3.8379     3.8379    -0.0000
 30 H      1.0077     1.0000    -0.0077     1.0023     1.0023    -0.0000
 31 C      5.9733     6.0000     0.0267     3.8358     3.8358    -0.0000
 32 H      0.9777     1.0000     0.0223     0.9703     0.9703    -0.0000
 33 C      5.9673     6.0000     0.0327     3.8206     3.8206     0.0000
 34 H      1.0116     1.0000    -0.0116     0.9786     0.9786     0.0000
 35 H      1.0086     1.0000    -0.0086     0.9787     0.9787    -0.0000
 36 H      1.0069     1.0000    -0.0069     0.9785     0.9785     0.0000

  Mayer bond orders larger than 0.100000
B(  0-C ,  1-O ) :   1.3664 B(  0-C ,  4-C ) :   0.3103 B(  0-C , 15-C ) :   0.9693 
B(  0-C , 26-C ) :   0.9648 B(  1-O ,  2-Mg) :   0.5880 B(  2-Mg,  3-Br) :   1.1540 
B(  2-Mg,  4-C ) :   0.4425 B(  4-C ,  5-C ) :   1.3573 B(  4-C ,  6-C ) :   1.2706 
B(  5-C ,  7-C ) :   1.4016 B(  5-C ,  8-H ) :   0.9644 B(  6-C ,  9-C ) :   1.4272 
B(  6-C , 10-H ) :   0.9445 B(  7-C , 11-C ) :   1.3741 B(  7-C , 12-H ) :   0.9834 
B(  9-C , 11-C ) :   1.3716 B(  9-C , 13-H ) :   0.9825 B( 11-C , 14-H ) :   0.9818 
B( 15-C , 16-C ) :   1.3382 B( 15-C , 17-C ) :   1.4119 B( 16-C , 18-C ) :   1.3949 
B( 16-C , 19-H ) :   0.9793 B( 17-C , 20-C ) :   1.3440 B( 17-C , 21-H ) :   0.9847 
B( 18-C , 22-C ) :   1.3576 B( 18-C , 23-H ) :   0.9848 B( 20-C , 22-C ) :   1.3848 
B( 20-C , 24-H ) :   0.9851 B( 22-C , 25-H ) :   0.9868 B( 26-C , 27-C ) :   1.3778 
B( 26-C , 28-C ) :   1.3436 B( 27-C , 29-C ) :   1.3787 B( 27-C , 30-H ) :   0.9728 
B( 28-C , 31-C ) :   1.3955 B( 28-C , 32-H ) :   0.9615 B( 29-C , 33-C ) :   1.3844 
B( 29-C , 34-H ) :   0.9806 B( 31-C , 33-C ) :   1.3574 B( 31-C , 35-H ) :   0.9838 
B( 33-C , 36-H ) :   0.9859 

-------
TIMINGS
-------

Total SCF time: 0 days 0 hours 0 min 56 sec 

Total time                  ....      56.386 sec
Sum of individual times     ....      54.860 sec  ( 97.3%)

SCF preparation             ....       0.267 sec  (  0.5%)
Fock matrix formation       ....      53.303 sec  ( 94.5%)
  Startup                   ....       0.017 sec  (  0.0% of F)
  Split-RI-J                ....       6.120 sec  ( 11.5% of F)
  Chain of spheres X        ....      42.597 sec  ( 79.9% of F)
  XC integration            ....       5.640 sec  ( 10.6% of F)
    XC Preparation          ....       0.000 sec  (  0.0% of XC)
    Basis function eval.    ....       1.878 sec  ( 33.3% of XC)
    Density eval.           ....       1.461 sec  ( 25.9% of XC)
    XC-Functional eval.     ....       0.192 sec  (  3.4% of XC)
    XC-Potential eval.      ....       1.339 sec  ( 23.7% of XC)
Diagonalization             ....       0.000 sec  (  0.0%)
Density matrix formation    ....       0.144 sec  (  0.3%)
Total Energy calculation    ....       0.058 sec  (  0.1%)
Population analysis         ....       0.053 sec  (  0.1%)
Orbital Transformation      ....       0.098 sec  (  0.2%)
Orbital Orthonormalization  ....       0.000 sec  (  0.0%)
DIIS solution               ....       0.479 sec  (  0.9%)
SOSCF solution              ....       0.457 sec  (  0.8%)
Finished LeanSCF after  56.4 sec

Maximum memory used throughout the entire LEANSCF-calculation: 47.9 MB


-------------------------------------------------------------------------------
                          DFT DISPERSION CORRECTION                            
                                                                               
                              DFTD3 V3.1  Rev 1                                
                          USING Becke-Johnson damping                          
-------------------------------------------------------------------------------
The B3LYP functional is recognized
Active option DFTDOPT                   ...         4   

molecular C6(AA) [au] = 22362.192003 


            DFT-D V3
 parameters
 s6 scaling factor         :     1.0000 
 a1 scaling factor         :     0.3981 
 s8 scaling factor         :     1.9889 
 a2 scaling factor         :     4.4211 
 ad hoc parameters k1-k3   :    16.0000     1.3333    -4.0000 

 Edisp/kcal,au: -61.865552783921  -0.098589023340 
 E6   /kcal   : -27.907182897 
 E8   /kcal   : -33.958369887 
 % E8         :  54.890594779 

-------------------------   ----------------
Dispersion correction           -0.098589023
-------------------------   ----------------


-------------------------   --------------------
FINAL SINGLE POINT ENERGY     -3581.080281942418
-------------------------   --------------------



           ************************************************************
           *        Program running with 6 parallel MPI-processes     *
           *              working on a common directory               *
           ************************************************************
------------------------------------------------------------------------------
                         ORCA SCF GRADIENT CALCULATION
------------------------------------------------------------------------------

Nuc. rep. gradient        (SHARK) ... done (  0.0 sec)
HCore & Overlap gradient  (SHARK) ... done (  0.3 sec)
Split-RIJ-J gradient      (SHARK) ... done (  1.5 sec)
done ( 18.8 sec)
XC gradient                       ... done (  3.6 sec)
Dispersion correction             ... done (  0.0 sec)

-------------------
DISPERSION GRADIENT
-------------------

   1   C   :    0.000139100    0.000406007    0.000244261
   2   O   :   -0.000247659    0.000547820    0.000370558
   3   Mg  :    0.001055999    0.001136419    0.000032339
   4   Br  :    0.000833981    0.000931107    0.000493450
   5   C   :    0.000658221    0.000132911   -0.000214640
   6   C   :    0.001198911   -0.000320921   -0.000559263
   7   C   :    0.001043237    0.000110163    0.000268153
   8   C   :    0.000516446   -0.000448258   -0.000144295
   9   H   :    0.000523383   -0.000366491    0.000001972
  10   C   :    0.000558626   -0.000051233   -0.000541066
  11   H   :    0.000393394    0.000208703   -0.000358198
  12   C   :    0.000266449   -0.000069462   -0.000200172
  13   H   :    0.000159406   -0.000277489    0.000042762
  14   H   :    0.000124822    0.000086101   -0.000293559
  15   H   :    0.000171203   -0.000157453   -0.000187628
  16   C   :   -0.000920042    0.000395676   -0.000346350
  17   C   :   -0.000992072   -0.000095002   -0.000854702
  18   C   :   -0.000724809    0.000518813   -0.000289553
  19   C   :   -0.000454021   -0.000123767   -0.000582269
  20   H   :   -0.000354987   -0.000347823   -0.000403007
  21   C   :   -0.000375444    0.000293355   -0.000216847
  22   H   :   -0.000256804    0.000350890    0.000057341
  23   C   :   -0.000294346    0.000065665   -0.000329855
  24   H   :   -0.000073232   -0.000204753   -0.000264733
  25   H   :   -0.000177940    0.000235456   -0.000064820
  26   H   :   -0.000162237    0.000027737   -0.000242409
  27   C   :   -0.000516705   -0.000246671    0.000866957
  28   C   :   -0.000684350   -0.000717048    0.000655748
  29   C   :   -0.000354100   -0.000258102    0.000897379
  30   C   :   -0.000353513   -0.000446205    0.000245756
  31   H   :   -0.000334199   -0.000356359    0.000043092
  32   C   :   -0.000110461   -0.000240566    0.000624256
  33   H   :    0.000000728    0.000080704    0.000462215
  34   C   :   -0.000144483   -0.000283587    0.000325070
  35   H   :   -0.000183800   -0.000255231   -0.000030522
  36   H   :    0.000104088   -0.000032982    0.000308139
  37   H   :   -0.000032788   -0.000228123    0.000184439

Difference to translation invariance:
           :   -0.0000000000   -0.0000000000   -0.0000000000

Difference to rotation invariance:
           :   -0.0000000000    0.0000000000   -0.0000000000

Norm of the Dispersion gradient    ...    0.0046560505
RMS gradient                       ...    0.0004419328
MAX gradient                       ...    0.0011989114

------------------
CARTESIAN GRADIENT
------------------

   1   C   :   -0.000082511    0.000030292    0.000041891
   2   O   :   -0.000415329    0.000111226    0.000032497
   3   Mg  :   -0.000115735    0.000096161    0.000011017
   4   Br  :    0.001111138    0.000377555   -0.000078246
   5   C   :   -0.000012365    0.000000180    0.000023904
   6   C   :    0.000000277    0.000067246   -0.000026789
   7   C   :   -0.000019437   -0.000020003   -0.000002608
   8   C   :   -0.000047570   -0.000059324    0.000109535
   9   H   :    0.000058816   -0.000117770    0.000027884
  10   C   :    0.000011175    0.000051062    0.000066385
  11   H   :    0.000093366   -0.000008629   -0.000024811
  12   C   :   -0.000054000    0.000040289    0.000013659
  13   H   :   -0.000055505    0.000051727   -0.000043464
  14   H   :   -0.000052117    0.000030057    0.000051686
  15   H   :    0.000027849   -0.000000706   -0.000047991
  16   C   :    0.000060337   -0.000118113    0.000068041
  17   C   :   -0.000019611    0.000086283    0.000068228
  18   C   :   -0.000000540   -0.000078843   -0.000028414
  19   C   :   -0.000079157    0.000006829    0.000009887
  20   H   :    0.000132422   -0.000069168   -0.000035978
  21   C   :   -0.000040327   -0.000056670    0.000042698
  22   H   :   -0.000072959    0.000056233    0.000113774
  23   C   :   -0.000017306   -0.000019196   -0.000014507
  24   H   :    0.000025375   -0.000095816   -0.000091269
  25   H   :   -0.000032555   -0.000012706    0.000002858
  26   H   :    0.000003479   -0.000043062   -0.000008955
  27   C   :   -0.000038623   -0.000016823   -0.000097577
  28   C   :   -0.000031592    0.000024210   -0.000144409
  29   C   :   -0.000008365    0.000094452    0.000047448
  30   C   :   -0.000099792   -0.000073425   -0.000088003
  31   H   :    0.000004908   -0.000044325    0.000030083
  32   C   :    0.000001918   -0.000000209    0.000102325
  33   H   :   -0.000143105   -0.000054136   -0.000093055
  34   C   :    0.000067254   -0.000124754    0.000079596
  35   H   :   -0.000006396   -0.000012527   -0.000060756
  36   H   :   -0.000123384   -0.000032329   -0.000076063
  37   H   :   -0.000030035   -0.000065272    0.000019502

Difference to translation invariance:
           :   -0.0000000003    0.0000000000    0.0000000007

Difference to rotation invariance:
           :    0.0002241381    0.0004520642   -0.0003904977

Norm of the Cartesian gradient     ...    0.0014056532
RMS gradient                       ...    0.0001334187
MAX gradient                       ...    0.0011111384

-------
TIMINGS
-------

Total SCF gradient time     ....       24.267 sec

Densities                   ....       0.003 sec  (  0.0%)
One electron gradient       ....       0.349 sec  (  1.4%)
RI-J Coulomb gradient       ....       1.518 sec  (  6.3%)
COSX gradient               ....      18.783 sec  ( 77.4%)
XC gradient                 ....       3.591 sec  ( 14.8%)

Maximum memory used throughout the entire SCFGRAD-calculation: 56.5 MB


           ************************************************************
           *        Program running with 6 parallel MPI-processes     *
           *              working on a common directory               *
           ************************************************************

------------------------------------------------------------------------------
                              ORCA PROPERTY CALCULATIONS
------------------------------------------------------------------------------

GBWName                                 ... orca.gbw
Number of atoms                         ...     37
Number of basis functions               ...    405
Max core memory                         ...   4096 MB

Electric properties:
Dipole moment                           ... YES
Quadrupole moment                       ...  NO
Static polarizability (Dipole/Dipole)   ...  NO
Static polarizability (Dipole/Quad.)    ...  NO
Static polarizability (Quad./Quad.)     ...  NO
Static polarizability (Velocity)        ...  NO
Static hyperpolarizability              ...  NO

Atomic electric properties:
Dipole moment                           ...  NO
Quadrupole moment                       ...  NO
Static polarizability                   ...  NO

Choice of electric origin               ... Center of mass
Position of electric origin             ...     1.443925     1.772913     0.978396

General magnetic properties:
Magnetizability                         ...  NO

EPR properties:
g-Tensor (aka g-matrix)                 ...  NO
Zero-Field splitting spin-orbit         ...  NO
Zero-field splitting spin-spin          ...  NO
Hyperfine couplings                     ...  NO (   0 nuclei)
Quadrupole couplings                    ...  NO (   0 nuclei)
Contact density                         ...  NO (   0 nuclei)

NMR properties:
Chemical shifts                         ...  NO (   0 nuclei)
Spin-rotation constants                 ...  NO (   0 nuclei)
Spin-spin couplings                     ...  NO (   0 nuclei,    0 pairs)

Choice of magnetic origin               ... GIAO
Position of magnetic origin             ...     0.000000     0.000000     0.000000

Properties with geometric perturbations:
SCF Hessian                             ...  NO
IR spectrum                             ...  NO
VCD spectrum                            ...  NO
X-ray spectroscopy properties:
SCF XES/XAS/RIXS spectra                ...  NO

SCF SOC stabilization energy            ...  NO
Diagonal Born-Oppenheimer correction    ...  NO

-------------
DIPOLE MOMENT
-------------

Method             : SCF
Type of density    : Electron Density
Multiplicity       :   1
Irrep              :   0
Energy             : -3580.9816929190778865 Eh
Basis              : AO
                                X                 Y                 Z
Electronic contribution:     36.651574566      41.503570581      22.724531696
Nuclear contribution   :    -37.982998654     -43.392594272     -23.673316630
                        -----------------------------------------
Total Dipole Moment    :     -1.331424088      -1.889023690      -0.948784933
                        -----------------------------------------
Magnitude (a.u.)       :      2.498258084
Magnitude (Debye)      :      6.350067402



--------------------
Rotational spectrum 
--------------------
 
Rotational constants in cm-1:             0.008118             0.005435             0.004789 
Rotational constants in MHz :           243.358106           162.925688           143.578578 

Dipole components along the rotational axes: 
x,y,z [a.u.] :    -2.370627     0.212376    -0.759156 
x,y,z [Debye]:    -6.025655     0.539818    -1.929622 

 

Dipole moment calculation done in   0.0 sec 

Maximum memory used throughout the entire PROP-calculation: 26.4 MB

--------------------------------
SUGGESTED CITATIONS FOR THIS RUN
--------------------------------

Below you find a list of papers that are relevant to this ORCA run
We neither can nor want to force you to cite these papers, but we appreciate if you do
You receive ORCA, which is the product of decades of hard work by many enthusiastic individuals, for free
The only thing we kindly ask in return is that you cite our papers,
We deeply appreciate it, if you show your appreciation for ORCA by not just citing the generic ORCA reference.

Please note that relegating all ORCA citations to the supporting information does *not* help us.
SI sections are not indexed - citations you put there will not count into any citation statistics
But we need these citations in order to attract the funding resources that allow us to do what we are doing

Therefore, if you are a happy ORCA user, please consider citing a few of the papers listed below in the main body of your paper

In addition to the list printed below, the program has created the file orca.bibtex that contains the list in bibtex format
You can import this file easily into all common literature databanks and citation aid programs


List of essential papers. We consider these as the minimum necessary citations

  1. Neese, F.
     Software update: the ORCA program system, version 6.0
     WIRES Comput. Molec. Sci. 2025 15(1), e70019
     doi.org/10.1002/wcms.7019

List of papers to cite with high priority. The work reported in these papers was absolutely
necessary for this run to complete.
Our perspective: the developers of density functionals and basis sets usually get cited in chemistry papers
Good! But without the algorithms to do something with them, the functionals or basis sets would not do anything.
Hence, in our opinion, the algorithm design and method developments papers are equally worthy of getting cited

  1. Neese, F.
     An improvement of the resolution of the identity approximation for the formation of the Coulomb matrix
     J. Comp. Chem. 2003 24(14), 1740-1747
     doi.org/10.1002/jcc.10318
  2. Neese, F.; Wennmohs, F.; Hansen, A.; Becker, U.
     Efficient, approximate and parallel Hartree-Fock and hybrid DFT calculations. A 'chain-of-spheres' algorithm for the Hartree-Fock exchange
     Chem. Phys. 2009 356(1-3), 98-109
     doi.org/10.1016/j.chemphys.2008.10.036
  3. Grimme, S.; Antony, J.; Ehrlich, S.; Krieg, H.
     A consistent and accurate ab initio parametrization of density functional dispersion correction (DFT-D) for the 94 elements H-Pu
     J. Chem. Phys. 2010 132 , 154104
     doi.org/10.1063/1.3382344
  4. Grimme, S.; Ehrlich, S.; Goerigk, L.
     Effect of the damping function in dispersion corrected density functional theory
     J. Comput. Chem. 2011 32(7), 1456-1465
     doi.org/10.1002/jcc.21759
  5. Helmich-Paris, B.; de Souza, B.; Neese, F.; Izsák, R.
     An improved chain of spheres for exchange algorithm
     J. Chem. Phys. 2021 155(10), 104109
     doi.org/10.1063/5.0058766
  6. Neese, F.
     The SHARK Integral Generation and Digestion System
     J. Comp. Chem. 2022 44(3), 381
     doi.org/10.1002/jcc.26942

List of suggested additional citations. These are papers that are important in the 'surrounding' of 
of this run, or papers that preceded the highly important papers. If you like your results we are grateful for a citation.

  1. Izsak, R.; Neese, F.
     An overlap fitted chain of spheres exchange method
     J. Chem. Phys. 2011 135 , 144105
     doi.org/10.1063/1.3646921
  2. Izsak, R.; Hansen, A.; Neese, F.
     The resolution of identity and chain of spheres approximations for the LPNO-CCSD singles Fock term
     Molec. Phys. 2012 110 , 2413-2417
     doi.org/10.1080/00268976.2012.687466
  3. Neese, F.
     The ORCA program system
     WIRES Comput. Molec. Sci. 2012 2(1), 73-78
     doi.org/10.1002/wcms.81
  4. Izsak, R.; Neese, F.; Klopper, W.
     Robust fitting techniques in the chain of spheres approximation to the Fock exchange: The role of the complementary space
     J. Chem. Phys. 2013 139 , 
     doi.org/10.1063/1.4819264
  5. Neese, F.
     Software update: the ORCA program system, version 4.0
     WIRES Comput. Molec. Sci. 2018 8(1), 1-6
     doi.org/10.1002/wcms.1327
  6. Neese, F.; Wennmohs, F.; Becker, U.; Riplinger, C.
     The ORCA quantum chemistry program package
     J. Chem. Phys. 2020 152(22), 224108
     doi.org/10.1063/5.0004608
  7. Neese, F.
     Software update: The ORCA program system—Version 5.0
     WIRES Comput. Molec. Sci. 2022 12(1), e1606
     doi.org/10.1002/wcms.1606

List of optional additional citations

  1. Neese, F.
     Approximate second-order SCF convergence for spin unrestricted wavefunctions
     Chem. Phys. Lett. 2000 325(1-3), 93-98
     doi.org/10.1016/s0009-2614(00)00662-x

Timings for individual modules:

Sum of individual times          ...       86.600 sec (=   1.443 min)
Startup calculation              ...        3.257 sec (=   0.054 min)   3.8 %
SCF iterations                   ...       58.083 sec (=   0.968 min)  67.1 %
Property calculations            ...        0.480 sec (=   0.008 min)   0.6 %
SCF Gradient evaluation          ...       24.781 sec (=   0.413 min)  28.6 %
                             ****ORCA TERMINATED NORMALLY****
TOTAL RUN TIME: 0 days 0 hours 1 minutes 27 seconds 153 msec
