
                                 *****************
                                 * O   R   C   A *
                                 *****************

                                            #,                                       
                                            ###                                      
                                            ####                                     
                                            #####                                    
                                            ######                                   
                                           ########,                                 
                                     ,,################,,,,,                         
                               ,,#################################,,                 
                          ,,##########################################,,             
                       ,#########################################, ''#####,          
                    ,#############################################,,   '####,        
                  ,##################################################,,,,####,       
                ,###########''''           ''''###############################       
              ,#####''   ,,,,##########,,,,          '''####'''          '####       
            ,##' ,,,,###########################,,,                        '##       
           ' ,,###''''                  '''############,,,                           
         ,,##''                                '''############,,,,        ,,,,,,###''
      ,#''                                            '''#######################'''  
     '                                                          ''''####''''         
             ,#######,   #######,   ,#######,      ##                                
            ,#'     '#,  ##    ##  ,#'     '#,    #''#        ,####,    ,#,          
            ##       ##  ##   ,#'  ##            #'  '#       #'       ,# #          
            ##       ##  #######   ##           ,######,      #####,      #          
            '#,     ,#'  ##    ##  '#,     ,#' ,#      #,     #,   #      #          
             '#######'   ##     ##  '#######'  #'      '#     '####' #    #          



                #########################################################
                #                        -***-                          #
                #          Department of theory and spectroscopy        #
                #                                                       #
                #                      Frank Neese                      #
                #                                                       #
                #     Directorship, Architecture, Infrastructure        #
                #                    SHARK, DRIVERS                     #
                #        Core code/Algorithms in most modules           #
                #                                                       #
                #        Max Planck Institute fuer Kohlenforschung      #
                #                Kaiser Wilhelm Platz 1                 #
                #                 D-45470 Muelheim/Ruhr                 #
                #                      Germany                          #
                #                                                       #
                #                  All rights reserved                  #
                #                        -***-                          #
                #########################################################


                         Program Version 6.1.0  -  RELEASE   -
                                (GIT: $679e74b$)
                          ($2025-06-10 18:02:51 +0200$)


 With contributions from (in alphabetic order):
[Max-Planck-Institut fuer Kohlenforschung]                               
  Daniel Aravena         : Magnetic Suceptibility                        
  Michael Atanasov       : Ab Initio Ligand Field Theory (pilot matlab implementation)
  Alexander A. Auer      : GIAO ZORA, VPT2 properties, NMR spectrum      
  Ute Becker             : All parallelization in ORCA, NUMFREQ, NUMCALC 
  Giovanni Bistoni       : ED, misc. LED, open-shell LED, HFLD           
  Dmytro Bykov           : pre 5.0 version of the SCF Hessian            
  Marcos Casanova-Páez   : Triplet and SCS-CIS(D). UHF-(DLPNO)-IP/EA/STEOM-CCSD. UHF-CVS-IP/STEOM-CCSD   
  Vijay G. Chilkuri      : MRCI spin determinant printing, contributions to CSF-ICE 
  Pauline Colinet        : FMM embedding                                 
  Dipayan Datta          : RHF DLPNO-CCSD density                        
  Achintya Kumar Dutta   : EOM-CC, STEOM-CC                              
  Nicolas Foglia         : Exact transition moments, OPA infrastructure, MCD improvements    
  Dmitry Ganyushin       : Spin-Orbit,Spin-Spin,Magnetic field MRCI      
  Miquel Garcia-Rates    : C-PCM and meta-GGA Hessian, CCSD/C-PCM, Gaussian charge scheme 
  Tiago L. C. Gouveia    : GS-ROHF, GS-ROCIS                             
  Yang Guo               : DLPNO-NEVPT2, F12-NEVPT2, CIM, IAO-localization        
  Andreas Hansen         : Spin unrestricted coupled pair/coupled cluster methods 
  Ingolf Harden          : AUTO-CI MPn and infrastructure                
  Benjamin Helmich-Paris : MC-RPA, TRAH-(SCF,CASSCF), AVAS, COSX integrals, SCF dyn. polar., MC-PDFT, srDFT 
  Lee Huntington         : MR-EOM, pCC                                   
  Robert Izsak           : Overlap fitted RIJCOSX, COSX-SCS-MP3, EOM     
  Riya Kayal             : Wick's Theorem for AUTO-CI, AUTO-CI UHF-CCSDT 
  Emily Kempfer          : AUTO-CI RHF CISDT and CCSDT, approximate NEVPT4
  Christian Kollmar      : KDIIS, OOCD, Brueckner-CCSD(T), CCSD density, CASPT2, CASPT2-K, improved NEVPT2 
  Axel Koslowski         : Symmetry handling                             
  Simone Kossmann        : meta-GGA functionals, TD-DFT gradient, OOMP2, (MP2 Hessian; deprecated post 5.0) 
  Lucas Lang             : DCDCAS, Hyperfine gauge corrections, ICE-SOC+SSC
  Marvin Lechner         : AUTO-CI (C++ implementation), FIC-MRCC        
  Spencer Leger          : CASSCF response                               
  Dagmar Lenk            : GEPOL surface, SMD, ORCA-2-JSON               
  Dimitrios Liakos       : Extrapolation schemes; Compound Job, Property file
  Dimitrios Manganas     : Further ROCIS development; embedding schemes. LFT, Crystal Embedding 
  Dimitrios Pantazis     : SARC Basis sets                               
  Anastasios Papadopoulos: AUTO-CI, single reference methods and gradients 
  Taras Petrenko         : pre 6.0 DFT Hessian and TD-DFT gradient,  ECA, NRVS 
  Petra Pikulova         : Analytic Raman intensities                    
  Peter Pinski           : DLPNO-MP2, DLPNO-MP2 Gradient                 
  Shashank Vittal Rao    : ES-AILFT, MagRelax                            
  Christoph Reimann      : Effective Core Potentials                     
  Marius Retegan         : Local ZFS, SOC                                
  Christoph Riplinger    : Optimizer, TS searches, QM/MM, DLPNO-CCSD(T), (RO)-DLPNO pert. Triples 
  Michael Roemelt        : Original ROCIS implementation, recursive CI coupling coefficients
  Masaaki Saitow         : Open-shell DLPNO-CCSD energy and density      
  Barbara Sandhoefer     : DKH picture change effects                    
  Yorick L. A. Schmerwitz: GMF and freeze-and-release deltaSCF, NEB S-IDPP initial path                    
  Kantharuban Sivalingam : CASSCF convergence/infrastructure, NEVPT2, NEVPT3, NEVPT4(SD), FIC-MRCI and CEPA variants
  Bernardo de Souza      : ESD, SOC TD-DFT                               
  Georgi L. Stoychev     : AutoAux, RI-MP2 NMR, DLPNO-MP2 response, X2C  
  Van Anh Tran           : RI-MP2 g-tensors                              
  Willem Van den Heuvel  : Paramagnetic NMR                              
  Zikuan Wang            : NOTCH, Electric field optimization            
  Frank Wennmohs         : Technical directorship and infrastructure     
  Hang Xu                : AUTO-CI-Response properties                   
                                                                         
[FACCTs GmbH]                                                            
  Markus Bursch, Nicolas Foglia, Miquel Garcia-Rates, Ingolf Harden, Hagen Neugebauer, Anastasios Papadopoulos, 
  Christoph Riplinger, Bernardo de Souza, Georgi L. Stoychev                                                    
                                                                 
  APM, various basis sets, CI-OPT, improved COSX, DLPNO-Multilevel,           
  DOCKER, DRACO, updates on ESD, Fragmentator, GOAT, IRC, LR-CPCM, L-BFGS, MBIS, meta-GGA TD-DFT gradient, ML-optimized integration grids, 
  MM, NACMEs, nearIR, NEB, NEB-TS, NL-DFT gradient (VV10), 2- and 3-layer-ONIOM, interface openCOSMO-RS, QMMM,   
  Crystal-QMMM, RESP, rigid body optimization, SF, symmetry and pop. for TD-DFT, various functionals, SOLVATOR                                   
                                                                         
[Other institutions]                                                     
  V. Asgeirsson          : NEB                                           
  Christoph Bannwarth    : sTDA-DFT, sTD-DFT, PBEh-3c, B97-3c, D3        
  Giovanni Bistoni       : ETS/NOCV, ADLD/ADEX, COVALED                  
  Martin Brehm           : Molecular dynamics                            
  Ronald Cardenas        : ETS/NOCV                                      
  Martina Colucci        : COVALED                                       
  Sebastian Ehlert       : rSCAN, r2SCAN, r2SCAN-3c, D4, dhf basis sets  
  Marvin Friede          : D4 for Fr, Ra, Ac-Lr                          
  Lars Goerigk           : TD-DFT with DH, B97 family of functionals     
  Stefan Grimme          : VdW corrections, initial TS optimization, DFT functionals, gCP, sTDA/sTD-DF 
  Waldemar Hujo          : DFT-NL                                        
  H. Jonsson             : NEB                                           
  Holger Kruse           : gCP                                           
  Marcel Mueller         : wB97X-3c, vDZP basis set                      
  Hagen Neugebauer       : wr2SCAN, Native XTB                           
  Gianluca Regni         : ADLD/ADEX                                     
  Tobias Risthaus        : pre 6.0 range-separated hybrid DFT and stability analysis
  Lukas Wittmann         : regularized MP2, r2SCAN double-hybrids, wr2SCAN        
                                                                         
We gratefully acknowledge several colleagues who have allowed us to      
interface, adapt or use parts of their codes:                            
  Ed Valeev, F. Pavosevic, A. Kumar             : LibInt (2-el integral package), F12 methods 
  Garnet Chan, S. Sharma, J. Yang, R. Olivares  : DMRG                   
  Ulf Ekstrom                                   : XCFun DFT Library      
  Mihaly Kallay                                 : mrcc  (arbitrary order and MRCC methods)
  Frank Weinhold                                : gennbo (NPA and NBO analysis)           
  Simon Mueller                                 : openCOSMO-RS                            
  Christopher J. Cramer and Donald G. Truhlar   : smd solvation model                     
  S Lehtola, MJT Oliveira, MAL Marques          : LibXC Library                           
  Liviu Ungur et al                             : ANISO software                          


 Your calculation uses the libint2 library for the computation of 2-el integrals
 For citations please refer to: http://libint.valeyev.net

 Your ORCA version has been built with support for libXC version: 7.0.0
 For citations please refer to: https://libxc.gitlab.io

 This ORCA versions uses:
   CBLAS   interface :  Fast vector & matrix operations
   LAPACKE interface :  Fast linear algebra routines
   SCALAPACK package :  Parallel linear algebra routines
   Shared memory     :  Shared parallel matrices
   BLAS/LAPACK       :  OpenBLAS 0.3.29  USE64BITINT DYNAMIC_ARCH NO_AFFINITY Zen SINGLE_THREADED
        Core in use  :  Zen
   Copyright (c) 2011-2014, The OpenBLAS Project


  ***********************************
  * Starting time: Wed Sep 10 13:35:57 2025
  * Host name:     wyk-Server
  * Process ID:    2296163
  * Working dir.:  /home/wyk/Documents/code/openQDC/MGMR/singlepointcalc/66/sp
  ***********************************

Your calculation utilizes the atom-pairwise dispersion correction
with the Becke-Johnson damping scheme (D3BJ)


Warning: RI is on but no J-basis has been assigned. Assigning Def2/J (nothing to worry about!)
================================================================================

----- Orbital basis set information -----
Your calculation utilizes the basis: def2-SVP
   F. Weigend and R. Ahlrichs, Phys. Chem. Chem. Phys. 7, 3297 (2005).

----- AuxJ basis set information -----
Your calculation utilizes the auxiliary basis: def2/J
   H-Rn: F. Weigend, Phys. Chem. Chem. Phys. 8, 1057 (2006).
   Fr-Lr: K. Eichkorn, F. Weigend, O. Treutler, R. Ahlrichs; Theor. Chem. Acc. 97, 119 (1997).

================================================================================
                                        WARNINGS
                       Please study these warnings very carefully!
================================================================================


================================================================================
                                       INPUT FILE
================================================================================
NAME = orca.inp
|  1> ! B3LYP def2-SVP d3 EnGrad 
|  2> %pal nprocs 6 end 
|  3> *xyz 0 1 
|  4> C   -1.75720607854599 -0.06272897679662 -0.23504166718347
|  5> C   -0.26830099436456 0.48047120747852 -0.8170196315324
|  6> N   0.9913443150672 0.54217107065949 -0.74548381063142
|  7> C   1.82146221378097 -0.00226218609779 0.29875925042948
|  8> H   -0.48358163042424 -0.17175701092799 0.32258686752244
|  9> H   -2.0208186569283 -0.83155231725082 0.54194519837883
| 10> H   -2.2225306102707 0.88347363955412 0.06790028035158
| 11> H   -2.23477798138481 -0.40465805155754 -1.16754527802402
| 12> H   2.5580588835815 -0.70220265506994 -0.13137331604856
| 13> H   2.39361145784283 0.8052650066091 0.78699069572116
| 14> H   1.22273908164611 -0.53621972660054 1.07828141101636
| 15> *
| 16> 
| 17>                          ****END OF INPUT****
================================================================================

                     *******************************
                     * Energy+Gradient Calculation *
                     *******************************

---------------------------------
CARTESIAN COORDINATES (ANGSTROEM)
---------------------------------
  C     -1.757206   -0.062729   -0.235042
  C     -0.268301    0.480471   -0.817020
  N      0.991344    0.542171   -0.745484
  C      1.821462   -0.002262    0.298759
  H     -0.483582   -0.171757    0.322587
  H     -2.020819   -0.831552    0.541945
  H     -2.222531    0.883474    0.067900
  H     -2.234778   -0.404658   -1.167545
  H      2.558059   -0.702203   -0.131373
  H      2.393611    0.805265    0.786991
  H      1.222739   -0.536220    1.078281

----------------------------
CARTESIAN COORDINATES (A.U.)
----------------------------
  NO LB      ZA    FRAG     MASS         X           Y           Z
   0 C     6.0000    0    12.011   -3.320638   -0.118541   -0.444164
   1 C     6.0000    0    12.011   -0.507015    0.907959   -1.543943
   2 N     7.0000    0    14.007    1.873369    1.024555   -1.408760
   3 C     6.0000    0    12.011    3.442065   -0.004275    0.564573
   4 H     1.0000    0     1.008   -0.913837   -0.324574    0.609601
   5 H     1.0000    0     1.008   -3.818794   -1.571406    1.024128
   6 H     1.0000    0     1.008   -4.199974    1.669523    0.128313
   7 H     1.0000    0     1.008   -4.223118   -0.764693   -2.206341
   8 H     1.0000    0     1.008    4.834031   -1.326971   -0.248260
   9 H     1.0000    0     1.008    4.523270    1.521730    1.487197
  10 H     1.0000    0     1.008    2.310642   -1.013308    2.037657

--------------------------------
INTERNAL COORDINATES (ANGSTROEM)
--------------------------------
 C      0   0   0     0.000000000000     0.00000000     0.00000000
 C      1   0   0     1.688372927077     0.00000000     0.00000000
 N      2   1   0     1.263182707435   151.11399223     0.00000000
 C      3   2   1     1.440814654077   126.66382322   355.21074655
 H      2   1   3     1.330582719652    53.44389842   352.50884269
 H      1   2   3     1.124406292034   131.67670537   348.97099814
 H      1   2   3     1.097087113492   101.05414625   114.59341609
 H      1   2   3     1.102067783205   100.97051630   226.14443616
 H      4   3   2     1.103406243779   109.98562033   122.81679526
 H      4   3   2     1.103551026737   110.05072909   240.32285094
 H      4   3   2     1.118586090947   112.15191334     1.29703650

---------------------------
INTERNAL COORDINATES (A.U.)
---------------------------
 C      0   0   0     0.000000000000     0.00000000     0.00000000
 C      1   0   0     3.190562444102     0.00000000     0.00000000
 N      2   1   0     2.387069374157   151.11399223     0.00000000
 C      3   2   1     2.722745105945   126.66382322   355.21074655
 H      2   1   3     2.514436938670    53.44389842   352.50884269
 H      1   2   3     2.124819955201   131.67670537   348.97099814
 H      1   2   3     2.073194189554   101.05414625   114.59341609
 H      1   2   3     2.082606291275   100.97051630   226.14443616
 H      4   3   2     2.085135615202   109.98562033   122.81679526
 H      4   3   2     2.085409215341   110.05072909   240.32285094
 H      4   3   2     2.113821369103   112.15191334     1.29703650

---------------------
BASIS SET INFORMATION
---------------------
There are 3 groups of distinct atoms

 Group   1 Type C   : 7s4p1d contracted to 3s2p1d pattern {511/31/1}
 Group   2 Type N   : 7s4p1d contracted to 3s2p1d pattern {511/31/1}
 Group   3 Type H   : 4s1p contracted to 2s1p pattern {31/1}

Atom   0C    basis set group =>   1
Atom   1C    basis set group =>   1
Atom   2N    basis set group =>   2
Atom   3C    basis set group =>   1
Atom   4H    basis set group =>   3
Atom   5H    basis set group =>   3
Atom   6H    basis set group =>   3
Atom   7H    basis set group =>   3
Atom   8H    basis set group =>   3
Atom   9H    basis set group =>   3
Atom  10H    basis set group =>   3
---------------------------------
AUXILIARY/J BASIS SET INFORMATION
---------------------------------
There are 3 groups of distinct atoms

 Group   1 Type C   : 12s5p4d2f1g contracted to 6s4p3d1f1g pattern {711111/2111/211/2/1}
 Group   2 Type N   : 12s5p4d2f1g contracted to 6s4p3d1f1g pattern {711111/2111/211/2/1}
 Group   3 Type H   : 5s2p1d contracted to 3s1p1d pattern {311/2/1}

Atom   0C    basis set group =>   1
Atom   1C    basis set group =>   1
Atom   2N    basis set group =>   2
Atom   3C    basis set group =>   1
Atom   4H    basis set group =>   3
Atom   5H    basis set group =>   3
Atom   6H    basis set group =>   3
Atom   7H    basis set group =>   3
Atom   8H    basis set group =>   3
Atom   9H    basis set group =>   3
Atom  10H    basis set group =>   3


           ************************************************************
           *        Program running with 6 parallel MPI-processes     *
           *              working on a common directory               *
           ************************************************************
------------------------------------------------------------------------------
                             ORCA STARTUP CALCULATIONS
                           -- RI-GTO INTEGRALS CHOSEN --
------------------------------------------------------------------------------
------------------------------------------------------------------------------
                   ___                                                        
                  /   \      - P O W E R E D   B Y -                         
                 /     \                                                     
                 |  |  |   _    _      __       _____    __    __             
                 |  |  |  | |  | |    /  \     |  _  \  |  |  /  |          
                  \  \/   | |  | |   /    \    | | | |  |  | /  /          
                 / \  \   | |__| |  /  /\  \   | |_| |  |  |/  /          
                |  |  |   |  __  | /  /__\  \  |    /   |      \           
                |  |  |   | |  | | |   __   |  |    \   |  |\   \          
                \     /   | |  | | |  |  |  |  | |\  \  |  | \   \       
                 \___/    |_|  |_| |__|  |__|  |_| \__\ |__|  \__/        
                                                                              
                      - O R C A' S   B I G   F R I E N D -                    
                                      &                                       
                       - I N T E G R A L  F E E D E R -                       
                                                                              
 v1 FN, 2020, v2 2021, v3 2022-2024                                           
------------------------------------------------------------------------------


----------------------
SHARK INTEGRAL PACKAGE
----------------------

Number of atoms                             ...     11
Number of basis functions                   ...     91
Number of shells                            ...     45
Maximum angular momentum                    ...      2
Integral batch strategy                     ... SHARK/LIBINT Hybrid
RI-J (if used) integral strategy            ... SPLIT-RIJ (Revised 2003 algorithm where possible)
Printlevel                                  ...      1
Contraction scheme used                     ... SEGMENTED contraction
Prescreening option                         ... SCHWARTZ
   Thresh                                   ... 2.500e-11
   Tcut                                     ... 2.500e-12
   Tpresel                                  ... 2.500e-12 
Coulomb Range Separation                    ... NOT USED
Exchange Range Separation                   ... NOT USED
Multipole approximations                    ... NOT USED
Finite Nucleus Model                        ... NOT USED
CABS basis                                  ... NOT available
Auxiliary Coulomb fitting basis             ... AVAILABLE
   # of basis functions in Aux-J            ...    273
   # of shells in Aux-J                     ...     95
   Maximum angular momentum in Aux-J        ...      4
Auxiliary J/K fitting basis                 ... NOT available
Auxiliary Correlation fitting basis         ... NOT available
Auxiliary 'external' fitting basis          ... NOT available

Checking pre-screening integrals            ... done (  0.0 sec) Dimension = 45
   => SHARK Basis and OBASIS are compatible. Storing Pre-screening
Shell pair information
Shell pair cut-off parameter TPreSel        ...   2.5e-12
Total number of shell pairs                 ...      1035
Shell pairs after pre-screening             ...      1015
Total number of primitive shell pairs       ...      3559
Primitive shell pairs kept                  ...      2823
          la=0 lb=0:    345 shell pairs
          la=1 lb=0:    383 shell pairs
          la=1 lb=1:    115 shell pairs
          la=2 lb=0:    102 shell pairs
          la=2 lb=1:     60 shell pairs
          la=2 lb=2:     10 shell pairs

Checking whether 4 symmetric matrices of dimension 91 fit in memory
:Max Core in MB      =   4096.00
 MB in use           =      4.56
 MB left             =   4091.44
 MB needed           =      0.13
 Data fit in memory  = YES
Calculating RI/J V-Matrix + Cholesky decomp.... done (  0.0 sec)
Calculating Nuclear repulsion               ... done (  0.0 sec) ENN=    115.246595604129 Eh

Diagonalization of the overlap matrix:
Smallest eigenvalue                        ... 3.595e-03
Time for diagonalization                   ...    0.001 sec
Threshold for overlap eigenvalues          ... 1.000e-07
Number of eigenvalues below threshold      ... 0
Time for construction of square roots      ...    0.001 sec
Total time needed                          ...    0.003 sec

-------------------
DFT GRID GENERATION
-------------------

General Integration Accuracy     IntAcc      ... 4.388
Radial Grid Type                 RadialGrid  ... OptM3 with GC (2021)
Angular Grid (max. ang.)         AngularGrid ... 4 (Lebedev-302)
Angular grid pruning method      GridPruning ... 4 (adaptive)
Weight generation scheme         WeightScheme... mBecke (2022)
Basis function cutoff            BFCut       ... 1.0000e-11
Integration weight cutoff        WCut        ... 1.0000e-14
Partially contracted basis set               ... off
Rotationally invariant grid construction     ... off
Angular grids for H and He will be reduced by one unit

Total number of grid points                  ...    46982
Total number of batches                      ...      738
Average number of points per batch           ...       63
Average number of grid points per atom       ...     4271

--------------------
COSX GRID GENERATION
--------------------

GRIDX 1
-------
General Integration Accuracy     IntAcc      ... 3.816
Radial Grid Type                 RadialGrid  ... OptM3 with GC (2021)
Angular Grid (max. ang.)         AngularGrid ... 1 (Lebedev-50)
Angular grid pruning method      GridPruning ... 4 (adaptive)
Weight generation scheme         WeightScheme... mBecke (2022)
Basis function cutoff            BFCut       ... 1.0000e-11
Integration weight cutoff        WCut        ... 1.0000e-14
Partially contracted basis set               ... on
Rotationally invariant grid construction     ... off
Angular grids for H and He will be reduced by one unit

Total number of grid points                  ...     6060
Total number of batches                      ...       53
Average number of points per batch           ...      114
Average number of grid points per atom       ...      551
UseSFitting                                  ... on

GRIDX 2
-------
General Integration Accuracy     IntAcc      ... 4.020
Radial Grid Type                 RadialGrid  ... OptM3 with GC (2021)
Angular Grid (max. ang.)         AngularGrid ... 2 (Lebedev-110)
Angular grid pruning method      GridPruning ... 4 (adaptive)
Weight generation scheme         WeightScheme... mBecke (2022)
Basis function cutoff            BFCut       ... 1.0000e-11
Integration weight cutoff        WCut        ... 1.0000e-14
Partially contracted basis set               ... on
Rotationally invariant grid construction     ... off
Angular grids for H and He will be reduced by one unit

Total number of grid points                  ...    12784
Total number of batches                      ...      105
Average number of points per batch           ...      121
Average number of grid points per atom       ...     1162
UseSFitting                                  ... on

GRIDX 3
-------
General Integration Accuracy     IntAcc      ... 4.338
Radial Grid Type                 RadialGrid  ... OptM3 with GC (2021)
Angular Grid (max. ang.)         AngularGrid ... 3 (Lebedev-194)
Angular grid pruning method      GridPruning ... 4 (adaptive)
Weight generation scheme         WeightScheme... mBecke (2022)
Basis function cutoff            BFCut       ... 1.0000e-11
Integration weight cutoff        WCut        ... 1.0000e-14
Partially contracted basis set               ... on
Rotationally invariant grid construction     ... off
Angular grids for H and He will be reduced by one unit

Total number of grid points                  ...    28030
Total number of batches                      ...      225
Average number of points per batch           ...      124
Average number of grid points per atom       ...     2548
UseSFitting                                  ... on
Grids setup in   0.6 sec
Initializing property integral containers    ... done (  0.0 sec)

SHARK setup successfully completed in   0.7 seconds

Maximum memory used throughout the entire STARTUP-calculation: 13.7 MB


           ************************************************************
           *        Program running with 6 parallel MPI-processes     *
           *              working on a common directory               *
           ************************************************************
-------------------------------------------------------------------------------
                                 ORCA GUESS
                   Start orbitals & Density for SCF / CASSCF
-------------------------------------------------------------------------------

------------
SCF SETTINGS
------------
Hamiltonian:
 Density Functional     Method          .... DFT(GTOs)
 Exchange Functional    Exchange        .... B88
   X-Alpha parameter    XAlpha          ....  0.666667
   Becke's b parameter  XBeta           ....  0.004200
 Correlation Functional Correlation     .... LYP
 LDA part of GGA corr.  LDAOpt          .... VWN-5
 Gradients option       PostSCFGGA      .... off
 Hybrid DFT is turned on
   Fraction HF Exchange ScalHFX         ....  0.200000
   Scaling of DF-GGA-X  ScalDFX         ....  0.720000
   Scaling of DF-GGA-C  ScalDFC         ....  0.810000
   Scaling of DF-LDA-C  ScalLDAC        ....  1.000000
   Perturbative correction              ....  0.000000
   NL short-range parameter             ....  4.800000
 RI-approximation to the Coulomb term is turned on
   Number of AuxJ basis functions       .... 273
   RIJ-COSX (HFX calculated with COS-X)).... on


General Settings:
 Integral files         IntName         .... orca
 Hartree-Fock type      HFTyp           .... RHF
 Total Charge           Charge          ....    0
 Multiplicity           Mult            ....    1
 Number of Electrons    NEL             ....   32
 Basis Dimension        Dim             ....   91
 Nuclear Repulsion      ENuc            ....    115.2465956041 Eh

Convergence Acceleration:
 AO-DIIS                CNVDIIS         .... on
   Start iteration      DIISMaxIt       ....    12
   Startup error        DIISStart       ....  0.200000
   # of expansion vecs  DIISMaxEq       ....     5
   Bias factor          DIISBfac        ....   1.050
   Max. coefficient     DIISMaxC        ....  10.000
 MO-DIIS                CNVKDIIS        .... off
 Trust-Rad. Augm. Hess. CNVTRAH         .... auto
   Auto Start mean grad. ratio tolernc. ....  1.125000
   Auto Start start iteration           ....    50
   Auto Start num. interpolation iter.  ....    10
   Max. Number of Micro iterations      ....    24
   Max. Number of Macro iterations      .... Maxiter - #DIIS iter
   Number of Davidson start vectors     ....     2
   Converg. threshold    (grad. norm)   ....   1.000e-05
   Grad. Scal. Fac. for Micro threshold ....   0.100
   Minimum threshold for Micro iter.    ....   1.000e-02
   NR start threshold (gradient norm)   ....   1.000e-04
   Initial trust radius                 ....   0.400
   Minimum AH scaling param. (alpha)    ....   1.000
   Maximum AH scaling param. (alpha)    .... 1000.000
   Quad. conv. algorithm                .... NR
   White noise on init. David. guess    .... on
   Maximum white noise                  ....   0.010
   Pseudo random numbers                .... off
   Inactive MOs                         .... canonical
   Orbital update algorithm             .... Taylor
   Preconditioner                       .... Diag
   Full preconditioner red. dimension   ....   250
 SOSCF                 CNVSOSCF           .... on
   Start iteration     SOSCFMaxIt         ....   150
   Startup grad/error  SOSCFStart         ....  0.003300
   Hessian update      SOSCFHessUp        .... L-BFGS
   Autom. constraints  SOSCFAutoConstrain .... off
 Level Shifting         CNVShift        .... on
   Level shift para.    LevelShift      ....    0.2500
   Turn off err/grad.   ShiftErr        ....    0.0010
 Zerner damping         CNVZerner       .... off
 Static damping         CNVDamp         .... on
   Fraction old density DampFac         ....    0.7000
   Max. Damping (<1)    DampMax         ....    0.9800
   Min. Damping (>=0)   DampMin         ....    0.0000
   Turn off err/grad.   DampErr         ....    0.1000

SCF Procedure:
 Maximum # iterations   MaxIter         ....   125
 SCF integral mode      SCFMode         .... Direct
   Integral package                     .... SHARK and LIBINT hybrid scheme
 Reset frequency        DirectResetFreq ....    20
 Integral Threshold     Thresh          ....  2.500e-11 Eh
 Primitive CutOff       TCut            ....  2.500e-12 Eh

Convergence Tolerance:
 Convergence Check Mode ConvCheckMode   .... Total+1el-Energy
 Convergence forced     ConvForced      .... 0
 Energy Change          TolE            ....  1.000e-08 Eh
 1-El. energy change                    ....  1.000e-05 Eh
 Orbital Gradient       TolG            ....  1.000e-05
 Orbital Rotation angle TolX            ....  1.000e-05
 DIIS Error             TolErr          ....  5.000e-07

------------------------------
INITIAL GUESS: MODEL POTENTIAL
------------------------------
Loading Hartree-Fock densities                     ... done
Calculating cut-offs                               ... done
Initializing the effective Hamiltonian             ... done
Setting up the integral package (SHARK)            ... done
Starting the Coulomb interaction                   ... done (   0.0 sec)
Making the grid                                    ... done (   0.1 sec)
Mapping shells                                     ... done
Starting the XC term evaluation                    ... done (   0.0 sec)
  promolecular density results
     # of electrons  =     31.995848536
     EX              =    -23.997346392
     EC              =     -1.024915503
     EX+EC           =    -25.022261894
Transforming the Hamiltonian                       ... done (   0.0 sec)
Diagonalizing the Hamiltonian                      ... done (   0.0 sec)
Back transforming the eigenvectors                 ... done (   0.0 sec)
Now organizing SCF variables                       ... done
                      ------------------
                      INITIAL GUESS DONE (   0.1 sec)
                      ------------------
             **** ENERGY FILE WAS UPDATED (orca.en.tmp) ****
Finished Guess after   0.2 sec
Maximum memory used throughout the entire GUESS-calculation: 6.9 MB


           ************************************************************
           *        Program running with 6 parallel MPI-processes     *
           *              working on a common directory               *
           ************************************************************

-------------------------------------------------------------------------------------------
                                      ORCA LEAN-SCF
                              memory conserving SCF solver
-------------------------------------------------------------------------------------------

----------------------------------------D-I-I-S--------------------------------------------
Iteration    Energy (Eh)           Delta-E    RMSDP     MaxDP     DIISErr   Damp  Time(sec)
-------------------------------------------------------------------------------------------
               ***  Starting incremental Fock matrix formation  ***
    1    -172.6793881207550498     0.00e+00  1.51e-02  9.20e-02  1.99e-01  0.700   0.4
    2    -172.7499070711501190    -7.05e-02  1.15e-02  7.39e-02  7.92e-02  0.700   0.2
                               ***Turning on AO-DIIS***
    3    -172.7752898717263292    -2.54e-02  5.08e-03  4.25e-02  3.12e-02  0.700   0.2
    4    -172.7905468694702904    -1.53e-02  8.03e-03  6.33e-02  1.41e-02  0.000   0.2
    5    -172.8243933172976767    -3.38e-02  2.23e-03  1.65e-02  9.31e-03  0.000   0.2
                              *** Initializing SOSCF ***
---------------------------------------S-O-S-C-F--------------------------------------
Iteration    Energy (Eh)           Delta-E    RMSDP     MaxDP     MaxGrad    Time(sec)
--------------------------------------------------------------------------------------
    6    -172.8248942038750329    -5.01e-04  9.27e-04  6.34e-03  2.33e-03     0.2
               *** Restarting incremental Fock matrix formation ***
    7    -172.8249513294151711    -5.71e-05  7.28e-04  5.60e-03  5.51e-04     0.4
    8    -172.8249545592354366    -3.23e-06  1.68e-04  1.26e-03  3.38e-04     0.3
    9    -172.8249578057807412    -3.25e-06  8.49e-05  4.78e-04  1.04e-04     0.3
   10    -172.8249576343148988     1.71e-07  3.72e-05  2.34e-04  1.58e-04     0.3
   11    -172.8249579850157147    -3.51e-07  1.67e-05  1.21e-04  2.53e-05     0.3
   12    -172.8249579752206841     9.80e-09  1.06e-05  6.69e-05  2.88e-05     0.3
                 **** Energy Check signals convergence ****

               *****************************************************
               *                     SUCCESS                       *
               *           SCF CONVERGED AFTER  12 CYCLES          *
               *****************************************************

Recomputing exchange energy using gridx3       ... done (    0.482 sec)
Old exchange energy                            :     -4.881053316 Eh
New exchange energy                            :     -4.881027573 Eh
Exchange energy change after final integration :      0.000025743 Eh
Total energy after final integration           :   -172.824932255 Eh
             **** ENERGY FILE WAS UPDATED (orca.en.tmp) ****

----------------
TOTAL SCF ENERGY
----------------

Total Energy       :       -172.82493225486630 Eh           -4702.80549 eV

Components:
Nuclear Repulsion  :        115.24659560412937 Eh            3136.01930 eV
Electronic Energy  :       -288.07155360232599 Eh           -7838.82549 eV
One Electron Energy:       -459.57672317124775 Eh          -12505.71842 eV
Two Electron Energy:        171.50516956892176 Eh            4666.89292 eV

Virial components:
Potential Energy   :       -343.83618258394091 Eh           -9356.25819 eV
Kinetic Energy     :        171.01125032907461 Eh            4653.45270 eV
Virial Ratio       :          2.01060562929223

DFT components:
N(Alpha)           :       16.000012200990 electrons
N(Beta)            :       16.000012200990 electrons
N(Total)           :       32.000024401980 electrons
E(X)               :      -19.405956730399 Eh       
E(C)               :       -1.217228757067 Eh       
E(XC)              :      -20.623185487466 Eh       

---------------
SCF CONVERGENCE
---------------

  Last Energy change         ...   -9.7950e-09  Tolerance :   1.0000e-08
  Last MAX-Density change    ...    6.6926e-05  Tolerance :   1.0000e-07
  Last RMS-Density change    ...    1.0562e-05  Tolerance :   5.0000e-09
  Last DIIS Error            ...    2.3306e-03  Tolerance :   5.0000e-07
  Last Orbital Gradient      ...    2.8814e-05  Tolerance :   1.0000e-05
  Last Orbital Rotation      ...    2.5841e-05  Tolerance :   1.0000e-05


----------------
ORBITAL ENERGIES
----------------

  NO   OCC          E(Eh)            E(eV) 
   0   2.0000     -14.319203      -389.6453 
   1   2.0000     -10.264416      -279.3090 
   2   2.0000     -10.211306      -277.8638 
   3   2.0000     -10.209710      -277.8203 
   4   2.0000      -0.906463       -24.6661 
   5   2.0000      -0.761131       -20.7114 
   6   2.0000      -0.687365       -18.7041 
   7   2.0000      -0.540719       -14.7137 
   8   2.0000      -0.477294       -12.9878 
   9   2.0000      -0.457976       -12.4622 
  10   2.0000      -0.446184       -12.1413 
  11   2.0000      -0.426061       -11.5937 
  12   2.0000      -0.421005       -11.4561 
  13   2.0000      -0.291976        -7.9451 
  14   2.0000      -0.289402        -7.8750 
  15   2.0000      -0.173086        -4.7099 
  16   0.0000      -0.000990        -0.0270 
  17   0.0000       0.019739         0.5371 
  18   0.0000       0.077424         2.1068 
  19   0.0000       0.087470         2.3802 
  20   0.0000       0.096820         2.6346 
  21   0.0000       0.111392         3.0311 
  22   0.0000       0.120159         3.2697 
  23   0.0000       0.141752         3.8573 
  24   0.0000       0.157547         4.2871 
  25   0.0000       0.236748         6.4422 
  26   0.0000       0.347013         9.4427 
*Only the first 10 virtual orbitals were printed.

                    ********************************
                    * MULLIKEN POPULATION ANALYSIS *
                    ********************************

-----------------------
MULLIKEN ATOMIC CHARGES
-----------------------
   0 C :    0.040297
   1 C :   -0.251030
   2 N :   -0.155084
   3 C :    0.114639
   4 H :    0.037667
   5 H :    0.025918
   6 H :    0.074370
   7 H :    0.079840
   8 H :    0.027452
   9 H :    0.028286
  10 H :   -0.022354
Sum of atomic charges:    0.0000000

--------------------------------
MULLIKEN REDUCED ORBITAL CHARGES
--------------------------------
  0 C s       :     3.049324  s :     3.049324
      pz      :     1.020719  p :     2.871376
      px      :     0.817484
      py      :     1.033173
      dz2     :     0.004009  d :     0.039004
      dxz     :     0.012112
      dyz     :     0.009648
      dx2y2   :     0.007693
      dxy     :     0.005541

  1 C s       :     3.443297  s :     3.443297
      pz      :     0.902260  p :     2.755656
      px      :     1.008592
      py      :     0.844804
      dz2     :     0.006016  d :     0.052078
      dxz     :     0.016963
      dyz     :     0.004698
      dx2y2   :     0.009410
      dxy     :     0.014991

  2 N s       :     3.494467  s :     3.494467
      pz      :     1.300553  p :     3.631300
      px      :     1.096216
      py      :     1.234532
      dz2     :     0.004690  d :     0.029316
      dxz     :     0.008410
      dyz     :     0.003046
      dx2y2   :     0.005488
      dxy     :     0.007682

  3 C s       :     2.979812  s :     2.979812
      pz      :     0.898790  p :     2.863670
      px      :     0.969563
      py      :     0.995317
      dz2     :     0.006336  d :     0.041879
      dxz     :     0.012036
      dyz     :     0.009935
      dx2y2   :     0.003319
      dxy     :     0.010252

  4 H s       :     0.926806  s :     0.926806
      pz      :     0.013152  p :     0.035526
      px      :     0.014645
      py      :     0.007728

  5 H s       :     0.950710  s :     0.950710
      pz      :     0.009026  p :     0.023371
      px      :     0.005146
      py      :     0.009199

  6 H s       :     0.901887  s :     0.901887
      pz      :     0.005828  p :     0.023744
      px      :     0.005494
      py      :     0.012422

  7 H s       :     0.897088  s :     0.897088
      pz      :     0.012162  p :     0.023073
      px      :     0.005252
      py      :     0.005658

  8 H s       :     0.950617  s :     0.950617
      pz      :     0.004967  p :     0.021931
      px      :     0.008449
      py      :     0.008515

  9 H s       :     0.949709  s :     0.949709
      pz      :     0.005447  p :     0.022005
      px      :     0.006847
      py      :     0.009711

 10 H s       :     1.000545  s :     1.000545
      pz      :     0.008740  p :     0.021809
      px      :     0.006332
      py      :     0.006737



                     *******************************
                     * LOEWDIN POPULATION ANALYSIS *
                     *******************************

----------------------
LOEWDIN ATOMIC CHARGES
----------------------
   0 C :    0.034123
   1 C :   -0.166937
   2 N :   -0.110141
   3 C :   -0.003644
   4 H :    0.087987
   5 H :    0.007468
   6 H :    0.062535
   7 H :    0.046610
   8 H :    0.027605
   9 H :    0.027880
  10 H :   -0.013487

-------------------------------
LOEWDIN REDUCED ORBITAL CHARGES
-------------------------------
  0 C s       :     2.844836  s :     2.844836
      pz      :     1.088134  p :     3.024485
      px      :     0.849365
      py      :     1.086986
      dz2     :     0.008477  d :     0.096557
      dxz     :     0.032590
      dyz     :     0.024331
      dx2y2   :     0.016809
      dxy     :     0.014351

  1 C s       :     3.102273  s :     3.102273
      pz      :     0.993287  p :     2.954147
      px      :     1.080563
      py      :     0.880298
      dz2     :     0.012532  d :     0.110517
      dxz     :     0.035681
      dyz     :     0.009825
      dx2y2   :     0.024072
      dxy     :     0.028406

  2 N s       :     3.215296  s :     3.215296
      pz      :     1.346922  p :     3.834868
      px      :     1.250465
      py      :     1.237481
      dz2     :     0.009978  d :     0.059977
      dxz     :     0.017709
      dyz     :     0.005008
      dx2y2   :     0.013834
      dxy     :     0.013449

  3 C s       :     2.860542  s :     2.860542
      pz      :     0.972895  p :     3.042411
      px      :     1.023494
      py      :     1.046022
      dz2     :     0.014002  d :     0.100690
      dxz     :     0.029677
      dyz     :     0.025432
      dx2y2   :     0.005653
      dxy     :     0.025926

  4 H s       :     0.819530  s :     0.819530
      pz      :     0.036033  p :     0.092484
      px      :     0.039310
      py      :     0.017141

  5 H s       :     0.924206  s :     0.924206
      pz      :     0.027215  p :     0.068326
      px      :     0.014331
      py      :     0.026780

  6 H s       :     0.871747  s :     0.871747
      pz      :     0.013775  p :     0.065718
      px      :     0.015618
      py      :     0.036324

  7 H s       :     0.886444  s :     0.886444
      pz      :     0.036212  p :     0.066946
      px      :     0.016894
      py      :     0.013839

  8 H s       :     0.909420  s :     0.909420
      pz      :     0.014181  p :     0.062975
      px      :     0.025722
      py      :     0.023071

  9 H s       :     0.909081  s :     0.909081
      pz      :     0.015388  p :     0.063039
      px      :     0.020472
      py      :     0.027179

 10 H s       :     0.947950  s :     0.947950
      pz      :     0.027801  p :     0.065537
      px      :     0.018804
      py      :     0.018932



                      *****************************
                      * MAYER POPULATION ANALYSIS *
                      *****************************

  NA   - Mulliken gross atomic population
  ZA   - Total nuclear charge
  QA   - Mulliken gross atomic charge
  VA   - Mayer's total valence
  BVA  - Mayer's bonded valence
  FA   - Mayer's free valence

  ATOM       NA         ZA         QA         VA         BVA        FA
  0 C      5.9597     6.0000     0.0403     3.9273     3.9273     0.0000
  1 C      6.2510     6.0000    -0.2510     3.3954     3.3954     0.0000
  2 N      7.1551     7.0000    -0.1551     3.2472     3.2472     0.0000
  3 C      5.8854     6.0000     0.1146     3.8737     3.8737     0.0000
  4 H      0.9623     1.0000     0.0377     0.9375     0.9375     0.0000
  5 H      0.9741     1.0000     0.0259     0.9394     0.9394     0.0000
  6 H      0.9256     1.0000     0.0744     0.9913     0.9913     0.0000
  7 H      0.9202     1.0000     0.0798     0.9626     0.9626     0.0000
  8 H      0.9725     1.0000     0.0275     0.9914     0.9914     0.0000
  9 H      0.9717     1.0000     0.0283     0.9906     0.9906    -0.0000
 10 H      1.0224     1.0000    -0.0224     1.0067     1.0067     0.0000

  Mayer bond orders larger than 0.100000
B(  0-C ,  1-C ) :   0.6634 B(  0-C ,  4-H ) :   0.3717 B(  0-C ,  5-H ) :   0.9092 
B(  0-C ,  6-H ) :   0.9625 B(  0-C ,  7-H ) :   0.9491 B(  1-C ,  2-N ) :   2.0673 
B(  1-C ,  4-H ) :   0.5136 B(  2-N ,  3-C ) :   1.0251 B(  3-C ,  8-H ) :   0.9618 
B(  3-C ,  9-H ) :   0.9621 B(  3-C , 10-H ) :   0.9106 

-------
TIMINGS
-------

Total SCF time: 0 days 0 hours 0 min 4 sec 

Total time                  ....       4.348 sec
Sum of individual times     ....       4.022 sec  ( 92.5%)

SCF preparation             ....       0.173 sec  (  4.0%)
Fock matrix formation       ....       3.688 sec  ( 84.8%)
  Startup                   ....       0.004 sec  (  0.1% of F)
  Split-RI-J                ....       0.265 sec  (  7.2% of F)
  Chain of spheres X        ....       2.766 sec  ( 75.0% of F)
  XC integration            ....       0.835 sec  ( 22.6% of F)
    XC Preparation          ....       0.000 sec  (  0.0% of XC)
    Basis function eval.    ....       0.241 sec  ( 28.9% of XC)
    Density eval.           ....       0.116 sec  ( 13.9% of XC)
    XC-Functional eval.     ....       0.062 sec  (  7.4% of XC)
    XC-Potential eval.      ....       0.136 sec  ( 16.3% of XC)
Diagonalization             ....       0.000 sec  (  0.0%)
Density matrix formation    ....       0.022 sec  (  0.5%)
Total Energy calculation    ....       0.012 sec  (  0.3%)
Population analysis         ....       0.015 sec  (  0.3%)
Orbital Transformation      ....       0.011 sec  (  0.3%)
Orbital Orthonormalization  ....       0.000 sec  (  0.0%)
DIIS solution               ....       0.054 sec  (  1.2%)
SOSCF solution              ....       0.046 sec  (  1.1%)
Finished LeanSCF after   4.4 sec

Maximum memory used throughout the entire LEANSCF-calculation: 8.2 MB


-------------------------------------------------------------------------------
                          DFT DISPERSION CORRECTION                            
                                                                               
                              DFTD3 V3.1  Rev 1                                
                          USING Becke-Johnson damping                          
-------------------------------------------------------------------------------
The B3LYP functional is recognized
Active option DFTDOPT                   ...         4   

molecular C6(AA) [au] = 919.163035 


            DFT-D V3
 parameters
 s6 scaling factor         :     1.0000 
 a1 scaling factor         :     0.3981 
 s8 scaling factor         :     1.9889 
 a2 scaling factor         :     4.4211 
 ad hoc parameters k1-k3   :    16.0000     1.3333    -4.0000 

 Edisp/kcal,au: -6.699854320997  -0.010676896339 
 E6   /kcal   :  -3.335518477 
 E8   /kcal   :  -3.364335844 
 % E8         :  50.215059654 

-------------------------   ----------------
Dispersion correction           -0.010676896
-------------------------   ----------------


-------------------------   --------------------
FINAL SINGLE POINT ENERGY      -172.835609151205
-------------------------   --------------------



           ************************************************************
           *        Program running with 6 parallel MPI-processes     *
           *              working on a common directory               *
           ************************************************************
------------------------------------------------------------------------------
                         ORCA SCF GRADIENT CALCULATION
------------------------------------------------------------------------------

Nuc. rep. gradient        (SHARK) ... done (  0.0 sec)
HCore & Overlap gradient  (SHARK) ... done (  0.0 sec)
Split-RIJ-J gradient      (SHARK) ... done (  0.2 sec)
done (  2.0 sec)
XC gradient                       ... done (  0.4 sec)
Dispersion correction             ... done (  0.1 sec)

-------------------
DISPERSION GRADIENT
-------------------

   1   C   :   -0.000335369   -0.000011727   -0.000039051
   2   C   :   -0.000215425   -0.000039754    0.000056396
   3   N   :    0.000318069    0.000099274   -0.000115210
   4   C   :    0.000287600   -0.000003531    0.000052102
   5   H   :   -0.000068709    0.000107437   -0.000197035
   6   H   :   -0.000188281   -0.000075429    0.000056937
   7   H   :   -0.000169055    0.000040847    0.000023465
   8   H   :   -0.000155060   -0.000039172   -0.000051083
   9   H   :    0.000176576   -0.000060356    0.000019125
  10   H   :    0.000168295    0.000034828    0.000077574
  11   H   :    0.000181361   -0.000052417    0.000116781

Difference to translation invariance:
           :    0.0000000000   -0.0000000000    0.0000000000

Difference to rotation invariance:
           :   -0.0000000000    0.0000000000   -0.0000000000

Norm of the Dispersion gradient    ...    0.0008084018
RMS gradient                       ...    0.0001407247
MAX gradient                       ...    0.0003353695

------------------
CARTESIAN GRADIENT
------------------

   1   C   :   -0.000031385   -0.000074448    0.000014067
   2   C   :    0.000134374   -0.000187070    0.000068049
   3   N   :   -0.000010609    0.000071227    0.000028241
   4   C   :   -0.000068460   -0.000062364   -0.000106696
   5   H   :   -0.000002882    0.000094595    0.000078632
   6   H   :    0.000054210    0.000064708   -0.000037439
   7   H   :   -0.000028119   -0.000016256   -0.000052794
   8   H   :   -0.000033120    0.000073779    0.000018061
   9   H   :    0.000028643    0.000050584   -0.000051436
  10   H   :   -0.000046812   -0.000022795    0.000038857
  11   H   :    0.000004160    0.000008039    0.000002457

Difference to translation invariance:
           :    0.0000000001    0.0000000000   -0.0000000000

Difference to rotation invariance:
           :    0.0000304294    0.0000839397   -0.0000518399

Norm of the Cartesian gradient     ...    0.0003675054
RMS gradient                       ...    0.0000639745
MAX gradient                       ...    0.0001870699

-------
TIMINGS
-------

Total SCF gradient time     ....        2.674 sec

Densities                   ....       0.000 sec  (  0.0%)
One electron gradient       ....       0.024 sec  (  0.9%)
RI-J Coulomb gradient       ....       0.164 sec  (  6.1%)
COSX gradient               ....       2.002 sec  ( 74.9%)
XC gradient                 ....       0.429 sec  ( 16.0%)

Maximum memory used throughout the entire SCFGRAD-calculation: 26.8 MB


           ************************************************************
           *        Program running with 6 parallel MPI-processes     *
           *              working on a common directory               *
           ************************************************************

------------------------------------------------------------------------------
                              ORCA PROPERTY CALCULATIONS
------------------------------------------------------------------------------

GBWName                                 ... orca.gbw
Number of atoms                         ...     11
Number of basis functions               ...     91
Max core memory                         ...   4096 MB

Electric properties:
Dipole moment                           ... YES
Quadrupole moment                       ...  NO
Static polarizability (Dipole/Dipole)   ...  NO
Static polarizability (Dipole/Quad.)    ...  NO
Static polarizability (Quad./Quad.)     ...  NO
Static polarizability (Velocity)        ...  NO
Static hyperpolarizability              ...  NO

Atomic electric properties:
Dipole moment                           ...  NO
Quadrupole moment                       ...  NO
Static polarizability                   ...  NO

Choice of electric origin               ... Center of mass
Position of electric origin             ...     0.352201     0.384565    -0.595061

General magnetic properties:
Magnetizability                         ...  NO

EPR properties:
g-Tensor (aka g-matrix)                 ...  NO
Zero-Field splitting spin-orbit         ...  NO
Zero-field splitting spin-spin          ...  NO
Hyperfine couplings                     ...  NO (   0 nuclei)
Quadrupole couplings                    ...  NO (   0 nuclei)
Contact density                         ...  NO (   0 nuclei)

NMR properties:
Chemical shifts                         ...  NO (   0 nuclei)
Spin-rotation constants                 ...  NO (   0 nuclei)
Spin-spin couplings                     ...  NO (   0 nuclei,    0 pairs)

Choice of magnetic origin               ... GIAO
Position of magnetic origin             ...     0.000000     0.000000     0.000000

Properties with geometric perturbations:
SCF Hessian                             ...  NO
IR spectrum                             ...  NO
VCD spectrum                            ...  NO
X-ray spectroscopy properties:
SCF XES/XAS/RIXS spectra                ...  NO

SCF SOC stabilization energy            ...  NO
Diagonal Born-Oppenheimer correction    ...  NO

-------------
DIPOLE MOMENT
-------------

Method             : SCF
Type of density    : Electron Density
Multiplicity       :   1
Irrep              :   0
Energy             :  -172.8249322548662974 Eh
Basis              : AO
                                X                 Y                 Z
Electronic contribution:      1.413819513       1.689623852      -2.598457974
Nuclear contribution   :     -1.958174415      -2.233032930       3.471730248
                        -----------------------------------------
Total Dipole Moment    :     -0.544354902      -0.543409078       0.873272274
                        -----------------------------------------
Magnitude (a.u.)       :      1.163709650
Magnitude (Debye)      :      2.957914861



--------------------
Rotational spectrum 
--------------------
 
Rotational constants in cm-1:             0.774843             0.137690             0.122344 
Rotational constants in MHz :         23229.214794          4127.835800          3667.783144 

Dipole components along the rotational axes: 
x,y,z [a.u.] :     0.471378     1.063008     0.045116 
x,y,z [Debye]:     1.198149     2.701953     0.114676 

 

Dipole moment calculation done in   0.0 sec 

Maximum memory used throughout the entire PROP-calculation: 4.9 MB

--------------------------------
SUGGESTED CITATIONS FOR THIS RUN
--------------------------------

Below you find a list of papers that are relevant to this ORCA run
We neither can nor want to force you to cite these papers, but we appreciate if you do
You receive ORCA, which is the product of decades of hard work by many enthusiastic individuals, for free
The only thing we kindly ask in return is that you cite our papers,
We deeply appreciate it, if you show your appreciation for ORCA by not just citing the generic ORCA reference.

Please note that relegating all ORCA citations to the supporting information does *not* help us.
SI sections are not indexed - citations you put there will not count into any citation statistics
But we need these citations in order to attract the funding resources that allow us to do what we are doing

Therefore, if you are a happy ORCA user, please consider citing a few of the papers listed below in the main body of your paper

In addition to the list printed below, the program has created the file orca.bibtex that contains the list in bibtex format
You can import this file easily into all common literature databanks and citation aid programs


List of essential papers. We consider these as the minimum necessary citations

  1. Neese, F.
     Software update: the ORCA program system, version 6.0
     WIRES Comput. Molec. Sci. 2025 15(1), e70019
     doi.org/10.1002/wcms.7019

List of papers to cite with high priority. The work reported in these papers was absolutely
necessary for this run to complete.
Our perspective: the developers of density functionals and basis sets usually get cited in chemistry papers
Good! But without the algorithms to do something with them, the functionals or basis sets would not do anything.
Hence, in our opinion, the algorithm design and method developments papers are equally worthy of getting cited

  1. Neese, F.
     An improvement of the resolution of the identity approximation for the formation of the Coulomb matrix
     J. Comp. Chem. 2003 24(14), 1740-1747
     doi.org/10.1002/jcc.10318
  2. Neese, F.; Wennmohs, F.; Hansen, A.; Becker, U.
     Efficient, approximate and parallel Hartree-Fock and hybrid DFT calculations. A 'chain-of-spheres' algorithm for the Hartree-Fock exchange
     Chem. Phys. 2009 356(1-3), 98-109
     doi.org/10.1016/j.chemphys.2008.10.036
  3. Grimme, S.; Antony, J.; Ehrlich, S.; Krieg, H.
     A consistent and accurate ab initio parametrization of density functional dispersion correction (DFT-D) for the 94 elements H-Pu
     J. Chem. Phys. 2010 132 , 154104
     doi.org/10.1063/1.3382344
  4. Grimme, S.; Ehrlich, S.; Goerigk, L.
     Effect of the damping function in dispersion corrected density functional theory
     J. Comput. Chem. 2011 32(7), 1456-1465
     doi.org/10.1002/jcc.21759
  5. Helmich-Paris, B.; de Souza, B.; Neese, F.; Izsák, R.
     An improved chain of spheres for exchange algorithm
     J. Chem. Phys. 2021 155(10), 104109
     doi.org/10.1063/5.0058766
  6. Neese, F.
     The SHARK Integral Generation and Digestion System
     J. Comp. Chem. 2022 44(3), 381
     doi.org/10.1002/jcc.26942

List of suggested additional citations. These are papers that are important in the 'surrounding' of 
of this run, or papers that preceded the highly important papers. If you like your results we are grateful for a citation.

  1. Izsak, R.; Neese, F.
     An overlap fitted chain of spheres exchange method
     J. Chem. Phys. 2011 135 , 144105
     doi.org/10.1063/1.3646921
  2. Izsak, R.; Hansen, A.; Neese, F.
     The resolution of identity and chain of spheres approximations for the LPNO-CCSD singles Fock term
     Molec. Phys. 2012 110 , 2413-2417
     doi.org/10.1080/00268976.2012.687466
  3. Neese, F.
     The ORCA program system
     WIRES Comput. Molec. Sci. 2012 2(1), 73-78
     doi.org/10.1002/wcms.81
  4. Izsak, R.; Neese, F.; Klopper, W.
     Robust fitting techniques in the chain of spheres approximation to the Fock exchange: The role of the complementary space
     J. Chem. Phys. 2013 139 , 
     doi.org/10.1063/1.4819264
  5. Neese, F.
     Software update: the ORCA program system, version 4.0
     WIRES Comput. Molec. Sci. 2018 8(1), 1-6
     doi.org/10.1002/wcms.1327
  6. Neese, F.; Wennmohs, F.; Becker, U.; Riplinger, C.
     The ORCA quantum chemistry program package
     J. Chem. Phys. 2020 152(22), 224108
     doi.org/10.1063/5.0004608
  7. Neese, F.
     Software update: The ORCA program system—Version 5.0
     WIRES Comput. Molec. Sci. 2022 12(1), e1606
     doi.org/10.1002/wcms.1606

List of optional additional citations

  1. Neese, F.
     Approximate second-order SCF convergence for spin unrestricted wavefunctions
     Chem. Phys. Lett. 2000 325(1-3), 93-98
     doi.org/10.1016/s0009-2614(00)00662-x

Timings for individual modules:

Sum of individual times          ...        9.843 sec (=   0.164 min)
Startup calculation              ...        1.025 sec (=   0.017 min)  10.4 %
SCF iterations                   ...        5.247 sec (=   0.087 min)  53.3 %
Property calculations            ...        0.428 sec (=   0.007 min)   4.3 %
SCF Gradient evaluation          ...        3.143 sec (=   0.052 min)  31.9 %
                             ****ORCA TERMINATED NORMALLY****
TOTAL RUN TIME: 0 days 0 hours 0 minutes 10 seconds 389 msec
