
                                 *****************
                                 * O   R   C   A *
                                 *****************

                                            #,                                       
                                            ###                                      
                                            ####                                     
                                            #####                                    
                                            ######                                   
                                           ########,                                 
                                     ,,################,,,,,                         
                               ,,#################################,,                 
                          ,,##########################################,,             
                       ,#########################################, ''#####,          
                    ,#############################################,,   '####,        
                  ,##################################################,,,,####,       
                ,###########''''           ''''###############################       
              ,#####''   ,,,,##########,,,,          '''####'''          '####       
            ,##' ,,,,###########################,,,                        '##       
           ' ,,###''''                  '''############,,,                           
         ,,##''                                '''############,,,,        ,,,,,,###''
      ,#''                                            '''#######################'''  
     '                                                          ''''####''''         
             ,#######,   #######,   ,#######,      ##                                
            ,#'     '#,  ##    ##  ,#'     '#,    #''#        ,####,    ,#,          
            ##       ##  ##   ,#'  ##            #'  '#       #'       ,# #          
            ##       ##  #######   ##           ,######,      #####,      #          
            '#,     ,#'  ##    ##  '#,     ,#' ,#      #,     #,   #      #          
             '#######'   ##     ##  '#######'  #'      '#     '####' #    #          



                #########################################################
                #                        -***-                          #
                #          Department of theory and spectroscopy        #
                #                                                       #
                #                      Frank Neese                      #
                #                                                       #
                #     Directorship, Architecture, Infrastructure        #
                #                    SHARK, DRIVERS                     #
                #        Core code/Algorithms in most modules           #
                #                                                       #
                #        Max Planck Institute fuer Kohlenforschung      #
                #                Kaiser Wilhelm Platz 1                 #
                #                 D-45470 Muelheim/Ruhr                 #
                #                      Germany                          #
                #                                                       #
                #                  All rights reserved                  #
                #                        -***-                          #
                #########################################################


                         Program Version 6.1.0  -  RELEASE   -
                                (GIT: $679e74b$)
                          ($2025-06-10 18:02:51 +0200$)


 With contributions from (in alphabetic order):
[Max-Planck-Institut fuer Kohlenforschung]                               
  Daniel Aravena         : Magnetic Suceptibility                        
  Michael Atanasov       : Ab Initio Ligand Field Theory (pilot matlab implementation)
  Alexander A. Auer      : GIAO ZORA, VPT2 properties, NMR spectrum      
  Ute Becker             : All parallelization in ORCA, NUMFREQ, NUMCALC 
  Giovanni Bistoni       : ED, misc. LED, open-shell LED, HFLD           
  Dmytro Bykov           : pre 5.0 version of the SCF Hessian            
  Marcos Casanova-Páez   : Triplet and SCS-CIS(D). UHF-(DLPNO)-IP/EA/STEOM-CCSD. UHF-CVS-IP/STEOM-CCSD   
  Vijay G. Chilkuri      : MRCI spin determinant printing, contributions to CSF-ICE 
  Pauline Colinet        : FMM embedding                                 
  Dipayan Datta          : RHF DLPNO-CCSD density                        
  Achintya Kumar Dutta   : EOM-CC, STEOM-CC                              
  Nicolas Foglia         : Exact transition moments, OPA infrastructure, MCD improvements    
  Dmitry Ganyushin       : Spin-Orbit,Spin-Spin,Magnetic field MRCI      
  Miquel Garcia-Rates    : C-PCM and meta-GGA Hessian, CCSD/C-PCM, Gaussian charge scheme 
  Tiago L. C. Gouveia    : GS-ROHF, GS-ROCIS                             
  Yang Guo               : DLPNO-NEVPT2, F12-NEVPT2, CIM, IAO-localization        
  Andreas Hansen         : Spin unrestricted coupled pair/coupled cluster methods 
  Ingolf Harden          : AUTO-CI MPn and infrastructure                
  Benjamin Helmich-Paris : MC-RPA, TRAH-(SCF,CASSCF), AVAS, COSX integrals, SCF dyn. polar., MC-PDFT, srDFT 
  Lee Huntington         : MR-EOM, pCC                                   
  Robert Izsak           : Overlap fitted RIJCOSX, COSX-SCS-MP3, EOM     
  Riya Kayal             : Wick's Theorem for AUTO-CI, AUTO-CI UHF-CCSDT 
  Emily Kempfer          : AUTO-CI RHF CISDT and CCSDT, approximate NEVPT4
  Christian Kollmar      : KDIIS, OOCD, Brueckner-CCSD(T), CCSD density, CASPT2, CASPT2-K, improved NEVPT2 
  Axel Koslowski         : Symmetry handling                             
  Simone Kossmann        : meta-GGA functionals, TD-DFT gradient, OOMP2, (MP2 Hessian; deprecated post 5.0) 
  Lucas Lang             : DCDCAS, Hyperfine gauge corrections, ICE-SOC+SSC
  Marvin Lechner         : AUTO-CI (C++ implementation), FIC-MRCC        
  Spencer Leger          : CASSCF response                               
  Dagmar Lenk            : GEPOL surface, SMD, ORCA-2-JSON               
  Dimitrios Liakos       : Extrapolation schemes; Compound Job, Property file
  Dimitrios Manganas     : Further ROCIS development; embedding schemes. LFT, Crystal Embedding 
  Dimitrios Pantazis     : SARC Basis sets                               
  Anastasios Papadopoulos: AUTO-CI, single reference methods and gradients 
  Taras Petrenko         : pre 6.0 DFT Hessian and TD-DFT gradient,  ECA, NRVS 
  Petra Pikulova         : Analytic Raman intensities                    
  Peter Pinski           : DLPNO-MP2, DLPNO-MP2 Gradient                 
  Shashank Vittal Rao    : ES-AILFT, MagRelax                            
  Christoph Reimann      : Effective Core Potentials                     
  Marius Retegan         : Local ZFS, SOC                                
  Christoph Riplinger    : Optimizer, TS searches, QM/MM, DLPNO-CCSD(T), (RO)-DLPNO pert. Triples 
  Michael Roemelt        : Original ROCIS implementation, recursive CI coupling coefficients
  Masaaki Saitow         : Open-shell DLPNO-CCSD energy and density      
  Barbara Sandhoefer     : DKH picture change effects                    
  Yorick L. A. Schmerwitz: GMF and freeze-and-release deltaSCF, NEB S-IDPP initial path                    
  Kantharuban Sivalingam : CASSCF convergence/infrastructure, NEVPT2, NEVPT3, NEVPT4(SD), FIC-MRCI and CEPA variants
  Bernardo de Souza      : ESD, SOC TD-DFT                               
  Georgi L. Stoychev     : AutoAux, RI-MP2 NMR, DLPNO-MP2 response, X2C  
  Van Anh Tran           : RI-MP2 g-tensors                              
  Willem Van den Heuvel  : Paramagnetic NMR                              
  Zikuan Wang            : NOTCH, Electric field optimization            
  Frank Wennmohs         : Technical directorship and infrastructure     
  Hang Xu                : AUTO-CI-Response properties                   
                                                                         
[FACCTs GmbH]                                                            
  Markus Bursch, Nicolas Foglia, Miquel Garcia-Rates, Ingolf Harden, Hagen Neugebauer, Anastasios Papadopoulos, 
  Christoph Riplinger, Bernardo de Souza, Georgi L. Stoychev                                                    
                                                                 
  APM, various basis sets, CI-OPT, improved COSX, DLPNO-Multilevel,           
  DOCKER, DRACO, updates on ESD, Fragmentator, GOAT, IRC, LR-CPCM, L-BFGS, MBIS, meta-GGA TD-DFT gradient, ML-optimized integration grids, 
  MM, NACMEs, nearIR, NEB, NEB-TS, NL-DFT gradient (VV10), 2- and 3-layer-ONIOM, interface openCOSMO-RS, QMMM,   
  Crystal-QMMM, RESP, rigid body optimization, SF, symmetry and pop. for TD-DFT, various functionals, SOLVATOR                                   
                                                                         
[Other institutions]                                                     
  V. Asgeirsson          : NEB                                           
  Christoph Bannwarth    : sTDA-DFT, sTD-DFT, PBEh-3c, B97-3c, D3        
  Giovanni Bistoni       : ETS/NOCV, ADLD/ADEX, COVALED                  
  Martin Brehm           : Molecular dynamics                            
  Ronald Cardenas        : ETS/NOCV                                      
  Martina Colucci        : COVALED                                       
  Sebastian Ehlert       : rSCAN, r2SCAN, r2SCAN-3c, D4, dhf basis sets  
  Marvin Friede          : D4 for Fr, Ra, Ac-Lr                          
  Lars Goerigk           : TD-DFT with DH, B97 family of functionals     
  Stefan Grimme          : VdW corrections, initial TS optimization, DFT functionals, gCP, sTDA/sTD-DF 
  Waldemar Hujo          : DFT-NL                                        
  H. Jonsson             : NEB                                           
  Holger Kruse           : gCP                                           
  Marcel Mueller         : wB97X-3c, vDZP basis set                      
  Hagen Neugebauer       : wr2SCAN, Native XTB                           
  Gianluca Regni         : ADLD/ADEX                                     
  Tobias Risthaus        : pre 6.0 range-separated hybrid DFT and stability analysis
  Lukas Wittmann         : regularized MP2, r2SCAN double-hybrids, wr2SCAN        
                                                                         
We gratefully acknowledge several colleagues who have allowed us to      
interface, adapt or use parts of their codes:                            
  Ed Valeev, F. Pavosevic, A. Kumar             : LibInt (2-el integral package), F12 methods 
  Garnet Chan, S. Sharma, J. Yang, R. Olivares  : DMRG                   
  Ulf Ekstrom                                   : XCFun DFT Library      
  Mihaly Kallay                                 : mrcc  (arbitrary order and MRCC methods)
  Frank Weinhold                                : gennbo (NPA and NBO analysis)           
  Simon Mueller                                 : openCOSMO-RS                            
  Christopher J. Cramer and Donald G. Truhlar   : smd solvation model                     
  S Lehtola, MJT Oliveira, MAL Marques          : LibXC Library                           
  Liviu Ungur et al                             : ANISO software                          


 Your calculation uses the libint2 library for the computation of 2-el integrals
 For citations please refer to: http://libint.valeyev.net

 Your ORCA version has been built with support for libXC version: 7.0.0
 For citations please refer to: https://libxc.gitlab.io

 This ORCA versions uses:
   CBLAS   interface :  Fast vector & matrix operations
   LAPACKE interface :  Fast linear algebra routines
   SCALAPACK package :  Parallel linear algebra routines
   Shared memory     :  Shared parallel matrices
   BLAS/LAPACK       :  OpenBLAS 0.3.29  USE64BITINT DYNAMIC_ARCH NO_AFFINITY Zen SINGLE_THREADED
        Core in use  :  Zen
   Copyright (c) 2011-2014, The OpenBLAS Project


  ***********************************
  * Starting time: Wed Sep 10 13:39:23 2025
  * Host name:     wyk-Server
  * Process ID:    2314680
  * Working dir.:  /home/wyk/Documents/code/openQDC/MGMR/singlepointcalc/117/react
  ***********************************

Your calculation utilizes the atom-pairwise dispersion correction
with the Becke-Johnson damping scheme (D3BJ)


Warning: RI is on but no J-basis has been assigned. Assigning Def2/J (nothing to worry about!)
================================================================================

----- Orbital basis set information -----
Your calculation utilizes the basis: def2-SVP
   F. Weigend and R. Ahlrichs, Phys. Chem. Chem. Phys. 7, 3297 (2005).

----- AuxJ basis set information -----
Your calculation utilizes the auxiliary basis: def2/J
   H-Rn: F. Weigend, Phys. Chem. Chem. Phys. 8, 1057 (2006).
   Fr-Lr: K. Eichkorn, F. Weigend, O. Treutler, R. Ahlrichs; Theor. Chem. Acc. 97, 119 (1997).

================================================================================
                                        WARNINGS
                       Please study these warnings very carefully!
================================================================================


================================================================================
                                       INPUT FILE
================================================================================
NAME = orca.inp
|  1> ! B3LYP def2-SVP d3 EnGrad 
|  2> %pal nprocs 6 end 
|  3> *xyz 0 1 
|  4> C   1.335417252e-05 -1.837431181892 0.6703130281102
|  5> H   3.589882694e-05 -2.76024035855846 1.25686671707068
|  6> C   -1.949849441e-05 -0.51028990979924 1.36468711438348
|  7> H   -0.89977736510594 -0.32039652284719 1.97046075858213
|  8> H   0.89969813923676 -0.32037992504268 1.97051534654084
|  9> C   1.459541179e-05 -1.83743143086562 -0.6703134501681
| 10> C   -1.640351354e-05 -0.51029011763376 -1.36468774866388
| 11> H   -0.89977185604323 -0.32039734862735 -1.97046542949888
| 12> H   3.680498079e-05 -2.76024085648228 -1.25686662719525
| 13> H   0.89970354675253 -0.3203814534521 -1.97051268060824
| 14> S   1.324936708e-05 0.73291847335398 2.0515423e-07
| 15> O   -1.27997392661157 1.45010604550717 -2.84143e-08
| 16> O   1.28004447102028 1.45002758633952 2.80470713e-06
| 17> *
| 18> 
| 19>                          ****END OF INPUT****
================================================================================

                     *******************************
                     * Energy+Gradient Calculation *
                     *******************************

---------------------------------
CARTESIAN COORDINATES (ANGSTROEM)
---------------------------------
  C      0.000013   -1.837431    0.670313
  H      0.000036   -2.760240    1.256867
  C     -0.000019   -0.510290    1.364687
  H     -0.899777   -0.320397    1.970461
  H      0.899698   -0.320380    1.970515
  C      0.000015   -1.837431   -0.670313
  C     -0.000016   -0.510290   -1.364688
  H     -0.899772   -0.320397   -1.970465
  H      0.000037   -2.760241   -1.256867
  H      0.899704   -0.320381   -1.970513
  S      0.000013    0.732918    0.000000
  O     -1.279974    1.450106   -0.000000
  O      1.280044    1.450028    0.000003

----------------------------
CARTESIAN COORDINATES (A.U.)
----------------------------
  NO LB      ZA    FRAG     MASS         X           Y           Z
   0 C     6.0000    0    12.011    0.000025   -3.472242    1.266708
   1 H     1.0000    0     1.008    0.000068   -5.216098    2.375134
   2 C     6.0000    0    12.011   -0.000037   -0.964308    2.578885
   3 H     1.0000    0     1.008   -1.700333   -0.605462    3.723631
   4 H     1.0000    0     1.008    1.700183   -0.605430    3.723734
   5 C     6.0000    0    12.011    0.000028   -3.472242   -1.266709
   6 C     6.0000    0    12.011   -0.000031   -0.964309   -2.578886
   7 H     1.0000    0     1.008   -1.700322   -0.605463   -3.723640
   8 H     1.0000    0     1.008    0.000070   -5.216099   -2.375134
   9 H     1.0000    0     1.008    1.700193   -0.605433   -3.723729
  10 S    16.0000    0    32.060    0.000025    1.385015    0.000000
  11 O     8.0000    0    15.999   -2.418800    2.740303   -0.000000
  12 O     8.0000    0    15.999    2.418933    2.740155    0.000005

--------------------------------
INTERNAL COORDINATES (ANGSTROEM)
--------------------------------
 C      0   0   0     0.000000000000     0.00000000     0.00000000
 H      1   0   0     1.093445017859     0.00000000     0.00000000
 C      1   2   0     1.497818189521   119.94021387     0.00000000
 H      3   1   2     1.101174566063   114.06936117   296.50522357
 H      3   1   2     1.101174589624   114.06939161    63.49090129
 C      1   2   3     1.340626478279   122.44074428   179.99995612
 C      6   1   2     1.497818324317   117.61902702   180.00006743
 H      7   6   1     1.101174707608   114.06937275   243.49457559
 H      6   1   2     1.093444953338   122.44073593     0.00000000
 H      7   6   1     1.101174435684   114.06930766   116.50897440
 S      3   1   2     1.846059978775   104.71399845   179.99797969
 O     11   3   1     1.467216815716   109.21822499   112.50096009
 O     11   3   1     1.467216892058   109.21783030   247.50474140

---------------------------
INTERNAL COORDINATES (A.U.)
---------------------------
 C      0   0   0     0.000000000000     0.00000000     0.00000000
 H      1   0   0     2.066311626255     0.00000000     0.00000000
 C      1   2   0     2.830466176600   119.94021387     0.00000000
 H      3   1   2     2.080918355498   114.06936117   296.50522357
 H      3   1   2     2.080918400023   114.06939161    63.49090129
 C      1   2   3     2.533416891830   122.44074428   179.99995612
 C      6   1   2     2.830466431328   117.61902702   180.00006743
 H      7   6   1     2.080918622980   114.06937275   243.49457559
 H      6   1   2     2.066311504328   122.44073593     0.00000000
 H      7   6   1     2.080918109118   114.06930766   116.50897440
 S      3   1   2     3.488547786678   104.71399845   179.99797969
 O     11   3   1     2.772637960788   109.21822499   112.50096009
 O     11   3   1     2.772638105053   109.21783030   247.50474140

---------------------
BASIS SET INFORMATION
---------------------
There are 4 groups of distinct atoms

 Group   1 Type C   : 7s4p1d contracted to 3s2p1d pattern {511/31/1}
 Group   2 Type H   : 4s1p contracted to 2s1p pattern {31/1}
 Group   3 Type S   : 10s7p1d contracted to 4s3p1d pattern {5311/511/1}
 Group   4 Type O   : 7s4p1d contracted to 3s2p1d pattern {511/31/1}

Atom   0C    basis set group =>   1
Atom   1H    basis set group =>   2
Atom   2C    basis set group =>   1
Atom   3H    basis set group =>   2
Atom   4H    basis set group =>   2
Atom   5C    basis set group =>   1
Atom   6C    basis set group =>   1
Atom   7H    basis set group =>   2
Atom   8H    basis set group =>   2
Atom   9H    basis set group =>   2
Atom  10S    basis set group =>   3
Atom  11O    basis set group =>   4
Atom  12O    basis set group =>   4
---------------------------------
AUXILIARY/J BASIS SET INFORMATION
---------------------------------
There are 4 groups of distinct atoms

 Group   1 Type C   : 12s5p4d2f1g contracted to 6s4p3d1f1g pattern {711111/2111/211/2/1}
 Group   2 Type H   : 5s2p1d contracted to 3s1p1d pattern {311/2/1}
 Group   3 Type S   : 14s5p5d2f1g contracted to 8s4p3d1f1g pattern {71111111/2111/311/2/1}
 Group   4 Type O   : 12s5p4d2f1g contracted to 6s4p3d1f1g pattern {711111/2111/211/2/1}

Atom   0C    basis set group =>   1
Atom   1H    basis set group =>   2
Atom   2C    basis set group =>   1
Atom   3H    basis set group =>   2
Atom   4H    basis set group =>   2
Atom   5C    basis set group =>   1
Atom   6C    basis set group =>   1
Atom   7H    basis set group =>   2
Atom   8H    basis set group =>   2
Atom   9H    basis set group =>   2
Atom  10S    basis set group =>   3
Atom  11O    basis set group =>   4
Atom  12O    basis set group =>   4


           ************************************************************
           *        Program running with 6 parallel MPI-processes     *
           *              working on a common directory               *
           ************************************************************
------------------------------------------------------------------------------
                             ORCA STARTUP CALCULATIONS
                           -- RI-GTO INTEGRALS CHOSEN --
------------------------------------------------------------------------------
------------------------------------------------------------------------------
                   ___                                                        
                  /   \      - P O W E R E D   B Y -                         
                 /     \                                                     
                 |  |  |   _    _      __       _____    __    __             
                 |  |  |  | |  | |    /  \     |  _  \  |  |  /  |          
                  \  \/   | |  | |   /    \    | | | |  |  | /  /          
                 / \  \   | |__| |  /  /\  \   | |_| |  |  |/  /          
                |  |  |   |  __  | /  /__\  \  |    /   |      \           
                |  |  |   | |  | | |   __   |  |    \   |  |\   \          
                \     /   | |  | | |  |  |  |  | |\  \  |  | \   \       
                 \___/    |_|  |_| |__|  |__|  |_| \__\ |__|  \__/        
                                                                              
                      - O R C A' S   B I G   F R I E N D -                    
                                      &                                       
                       - I N T E G R A L  F E E D E R -                       
                                                                              
 v1 FN, 2020, v2 2021, v3 2022-2024                                           
------------------------------------------------------------------------------


----------------------
SHARK INTEGRAL PACKAGE
----------------------

Number of atoms                             ...     13
Number of basis functions                   ...    132
Number of shells                            ...     62
Maximum angular momentum                    ...      2
Integral batch strategy                     ... SHARK/LIBINT Hybrid
RI-J (if used) integral strategy            ... SPLIT-RIJ (Revised 2003 algorithm where possible)
Printlevel                                  ...      1
Contraction scheme used                     ... SEGMENTED contraction
Prescreening option                         ... SCHWARTZ
   Thresh                                   ... 2.500e-11
   Tcut                                     ... 2.500e-12
   Tpresel                                  ... 2.500e-12 
Coulomb Range Separation                    ... NOT USED
Exchange Range Separation                   ... NOT USED
Multipole approximations                    ... NOT USED
Finite Nucleus Model                        ... NOT USED
CABS basis                                  ... NOT available
Auxiliary Coulomb fitting basis             ... AVAILABLE
   # of basis functions in Aux-J            ...    411
   # of shells in Aux-J                     ...    137
   Maximum angular momentum in Aux-J        ...      4
Auxiliary J/K fitting basis                 ... NOT available
Auxiliary Correlation fitting basis         ... NOT available
Auxiliary 'external' fitting basis          ... NOT available

Checking pre-screening integrals            ... done (  0.0 sec) Dimension = 62
   => SHARK Basis and OBASIS are compatible. Storing Pre-screening
Shell pair information
Shell pair cut-off parameter TPreSel        ...   2.5e-12
Total number of shell pairs                 ...      1953
Shell pairs after pre-screening             ...      1887
Total number of primitive shell pairs       ...      7379
Primitive shell pairs kept                  ...      5326
          la=0 lb=0:    567 shell pairs
          la=1 lb=0:    692 shell pairs
          la=1 lb=1:    227 shell pairs
          la=2 lb=0:    230 shell pairs
          la=2 lb=1:    143 shell pairs
          la=2 lb=2:     28 shell pairs

Checking whether 4 symmetric matrices of dimension 132 fit in memory
:Max Core in MB      =   4096.00
 MB in use           =      5.78
 MB left             =   4090.22
 MB needed           =      0.27
 Data fit in memory  = YES
Calculating RI/J V-Matrix + Cholesky decomp.... done (  0.0 sec)
Calculating Nuclear repulsion               ... done (  0.0 sec) ENN=    401.571087389021 Eh

Diagonalization of the overlap matrix:
Smallest eigenvalue                        ... 1.362e-03
Time for diagonalization                   ...    0.003 sec
Threshold for overlap eigenvalues          ... 1.000e-07
Number of eigenvalues below threshold      ... 0
Time for construction of square roots      ...    0.001 sec
Total time needed                          ...    0.005 sec

-------------------
DFT GRID GENERATION
-------------------

General Integration Accuracy     IntAcc      ... 4.388
Radial Grid Type                 RadialGrid  ... OptM3 with GC (2021)
Angular Grid (max. ang.)         AngularGrid ... 4 (Lebedev-302)
Angular grid pruning method      GridPruning ... 4 (adaptive)
Weight generation scheme         WeightScheme... mBecke (2022)
Basis function cutoff            BFCut       ... 1.0000e-11
Integration weight cutoff        WCut        ... 1.0000e-14
Partially contracted basis set               ... off
Rotationally invariant grid construction     ... off
Angular grids for H and He will be reduced by one unit

Total number of grid points                  ...    62865
Total number of batches                      ...      989
Average number of points per batch           ...       63
Average number of grid points per atom       ...     4836

--------------------
COSX GRID GENERATION
--------------------

GRIDX 1
-------
General Integration Accuracy     IntAcc      ... 3.816
Radial Grid Type                 RadialGrid  ... OptM3 with GC (2021)
Angular Grid (max. ang.)         AngularGrid ... 1 (Lebedev-50)
Angular grid pruning method      GridPruning ... 4 (adaptive)
Weight generation scheme         WeightScheme... mBecke (2022)
Basis function cutoff            BFCut       ... 1.0000e-11
Integration weight cutoff        WCut        ... 1.0000e-14
Partially contracted basis set               ... on
Rotationally invariant grid construction     ... off
Angular grids for H and He will be reduced by one unit

Total number of grid points                  ...     9048
Total number of batches                      ...       75
Average number of points per batch           ...      120
Average number of grid points per atom       ...      696
UseSFitting                                  ... on

GRIDX 2
-------
General Integration Accuracy     IntAcc      ... 4.020
Radial Grid Type                 RadialGrid  ... OptM3 with GC (2021)
Angular Grid (max. ang.)         AngularGrid ... 2 (Lebedev-110)
Angular grid pruning method      GridPruning ... 4 (adaptive)
Weight generation scheme         WeightScheme... mBecke (2022)
Basis function cutoff            BFCut       ... 1.0000e-11
Integration weight cutoff        WCut        ... 1.0000e-14
Partially contracted basis set               ... on
Rotationally invariant grid construction     ... off
Angular grids for H and He will be reduced by one unit

Total number of grid points                  ...    17430
Total number of batches                      ...      143
Average number of points per batch           ...      121
Average number of grid points per atom       ...     1341
UseSFitting                                  ... on

GRIDX 3
-------
General Integration Accuracy     IntAcc      ... 4.338
Radial Grid Type                 RadialGrid  ... OptM3 with GC (2021)
Angular Grid (max. ang.)         AngularGrid ... 3 (Lebedev-194)
Angular grid pruning method      GridPruning ... 4 (adaptive)
Weight generation scheme         WeightScheme... mBecke (2022)
Basis function cutoff            BFCut       ... 1.0000e-11
Integration weight cutoff        WCut        ... 1.0000e-14
Partially contracted basis set               ... on
Rotationally invariant grid construction     ... off
Angular grids for H and He will be reduced by one unit

Total number of grid points                  ...    38908
Total number of batches                      ...      310
Average number of points per batch           ...      125
Average number of grid points per atom       ...     2993
UseSFitting                                  ... on
Grids setup in   0.9 sec
Initializing property integral containers    ... done (  0.0 sec)

SHARK setup successfully completed in   1.0 seconds

Maximum memory used throughout the entire STARTUP-calculation: 18.1 MB


           ************************************************************
           *        Program running with 6 parallel MPI-processes     *
           *              working on a common directory               *
           ************************************************************
-------------------------------------------------------------------------------
                                 ORCA GUESS
                   Start orbitals & Density for SCF / CASSCF
-------------------------------------------------------------------------------

------------
SCF SETTINGS
------------
Hamiltonian:
 Density Functional     Method          .... DFT(GTOs)
 Exchange Functional    Exchange        .... B88
   X-Alpha parameter    XAlpha          ....  0.666667
   Becke's b parameter  XBeta           ....  0.004200
 Correlation Functional Correlation     .... LYP
 LDA part of GGA corr.  LDAOpt          .... VWN-5
 Gradients option       PostSCFGGA      .... off
 Hybrid DFT is turned on
   Fraction HF Exchange ScalHFX         ....  0.200000
   Scaling of DF-GGA-X  ScalDFX         ....  0.720000
   Scaling of DF-GGA-C  ScalDFC         ....  0.810000
   Scaling of DF-LDA-C  ScalLDAC        ....  1.000000
   Perturbative correction              ....  0.000000
   NL short-range parameter             ....  4.800000
 RI-approximation to the Coulomb term is turned on
   Number of AuxJ basis functions       .... 411
   RIJ-COSX (HFX calculated with COS-X)).... on


General Settings:
 Integral files         IntName         .... orca
 Hartree-Fock type      HFTyp           .... RHF
 Total Charge           Charge          ....    0
 Multiplicity           Mult            ....    1
 Number of Electrons    NEL             ....   62
 Basis Dimension        Dim             ....  132
 Nuclear Repulsion      ENuc            ....    401.5710873890 Eh

Convergence Acceleration:
 AO-DIIS                CNVDIIS         .... on
   Start iteration      DIISMaxIt       ....    12
   Startup error        DIISStart       ....  0.200000
   # of expansion vecs  DIISMaxEq       ....     5
   Bias factor          DIISBfac        ....   1.050
   Max. coefficient     DIISMaxC        ....  10.000
 MO-DIIS                CNVKDIIS        .... off
 Trust-Rad. Augm. Hess. CNVTRAH         .... auto
   Auto Start mean grad. ratio tolernc. ....  1.125000
   Auto Start start iteration           ....    50
   Auto Start num. interpolation iter.  ....    10
   Max. Number of Micro iterations      ....    24
   Max. Number of Macro iterations      .... Maxiter - #DIIS iter
   Number of Davidson start vectors     ....     2
   Converg. threshold    (grad. norm)   ....   1.000e-05
   Grad. Scal. Fac. for Micro threshold ....   0.100
   Minimum threshold for Micro iter.    ....   1.000e-02
   NR start threshold (gradient norm)   ....   1.000e-04
   Initial trust radius                 ....   0.400
   Minimum AH scaling param. (alpha)    ....   1.000
   Maximum AH scaling param. (alpha)    .... 1000.000
   Quad. conv. algorithm                .... NR
   White noise on init. David. guess    .... on
   Maximum white noise                  ....   0.010
   Pseudo random numbers                .... off
   Inactive MOs                         .... canonical
   Orbital update algorithm             .... Taylor
   Preconditioner                       .... Diag
   Full preconditioner red. dimension   ....   250
 SOSCF                 CNVSOSCF           .... on
   Start iteration     SOSCFMaxIt         ....   150
   Startup grad/error  SOSCFStart         ....  0.003300
   Hessian update      SOSCFHessUp        .... L-BFGS
   Autom. constraints  SOSCFAutoConstrain .... off
 Level Shifting         CNVShift        .... on
   Level shift para.    LevelShift      ....    0.2500
   Turn off err/grad.   ShiftErr        ....    0.0010
 Zerner damping         CNVZerner       .... off
 Static damping         CNVDamp         .... on
   Fraction old density DampFac         ....    0.7000
   Max. Damping (<1)    DampMax         ....    0.9800
   Min. Damping (>=0)   DampMin         ....    0.0000
   Turn off err/grad.   DampErr         ....    0.1000

SCF Procedure:
 Maximum # iterations   MaxIter         ....   125
 SCF integral mode      SCFMode         .... Direct
   Integral package                     .... SHARK and LIBINT hybrid scheme
 Reset frequency        DirectResetFreq ....    20
 Integral Threshold     Thresh          ....  2.500e-11 Eh
 Primitive CutOff       TCut            ....  2.500e-12 Eh

Convergence Tolerance:
 Convergence Check Mode ConvCheckMode   .... Total+1el-Energy
 Convergence forced     ConvForced      .... 0
 Energy Change          TolE            ....  1.000e-08 Eh
 1-El. energy change                    ....  1.000e-05 Eh
 Orbital Gradient       TolG            ....  1.000e-05
 Orbital Rotation angle TolX            ....  1.000e-05
 DIIS Error             TolErr          ....  5.000e-07

------------------------------
INITIAL GUESS: MODEL POTENTIAL
------------------------------
Loading Hartree-Fock densities                     ... done
Calculating cut-offs                               ... done
Initializing the effective Hamiltonian             ... done
Setting up the integral package (SHARK)            ... done
Starting the Coulomb interaction                   ... done (   0.0 sec)
Making the grid                                    ... done (   0.1 sec)
Mapping shells                                     ... done
Starting the XC term evaluation                    ... done (   0.0 sec)
  promolecular density results
     # of electrons  =     61.996679197
     EX              =    -63.825393565
     EC              =     -2.240004016
     EX+EC           =    -66.065397581
Transforming the Hamiltonian                       ... done (   0.0 sec)
Diagonalizing the Hamiltonian                      ... done (   0.0 sec)
Back transforming the eigenvectors                 ... done (   0.0 sec)
Now organizing SCF variables                       ... done
                      ------------------
                      INITIAL GUESS DONE (   0.2 sec)
                      ------------------
             **** ENERGY FILE WAS UPDATED (orca.en.tmp) ****
Finished Guess after   0.3 sec
Maximum memory used throughout the entire GUESS-calculation: 8.4 MB


           ************************************************************
           *        Program running with 6 parallel MPI-processes     *
           *              working on a common directory               *
           ************************************************************

-------------------------------------------------------------------------------------------
                                      ORCA LEAN-SCF
                              memory conserving SCF solver
-------------------------------------------------------------------------------------------

----------------------------------------D-I-I-S--------------------------------------------
Iteration    Energy (Eh)           Delta-E    RMSDP     MaxDP     DIISErr   Damp  Time(sec)
-------------------------------------------------------------------------------------------
               ***  Starting incremental Fock matrix formation  ***
    1    -703.6714133975740424     0.00e+00  1.55e-02  1.98e-01  2.91e-01  0.700   0.8
    2    -703.8365852291879037    -1.65e-01  9.40e-03  8.51e-02  1.05e-01  0.700   0.5
                               ***Turning on AO-DIIS***
    3    -703.8890213297092942    -5.24e-02  3.24e-03  2.07e-02  3.57e-02  0.700   0.5
    4    -703.9243857105375355    -3.54e-02  4.89e-03  4.39e-02  1.60e-02  0.000   0.5
    5    -704.0052800293531163    -8.09e-02  1.31e-03  1.25e-02  8.87e-03  0.000   0.5
                              *** Initializing SOSCF ***
---------------------------------------S-O-S-C-F--------------------------------------
Iteration    Energy (Eh)           Delta-E    RMSDP     MaxDP     MaxGrad    Time(sec)
--------------------------------------------------------------------------------------
    6    -704.0057414660800532    -4.61e-04  3.52e-04  2.91e-03  1.43e-03     0.5
               *** Restarting incremental Fock matrix formation ***
    7    -704.0057528360750894    -1.14e-05  2.32e-04  1.72e-03  3.33e-04     0.8
    8    -704.0057539599713436    -1.12e-06  7.88e-05  6.37e-04  3.07e-04     0.6
    9    -704.0057558546548080    -1.89e-06  6.51e-05  5.87e-04  1.27e-04     0.6
   10    -704.0057558053208595     4.93e-08  2.76e-05  2.21e-04  1.51e-04     0.6
   11    -704.0057560950106108    -2.90e-07  8.06e-06  1.26e-04  1.24e-05     0.6
   12    -704.0057560959571674    -9.47e-10  3.54e-06  6.11e-05  1.22e-05     0.5
                 **** Energy Check signals convergence ****

               *****************************************************
               *                     SUCCESS                       *
               *           SCF CONVERGED AFTER  12 CYCLES          *
               *****************************************************

Recomputing exchange energy using gridx3       ... done (    1.208 sec)
Old exchange energy                            :    -12.867405069 Eh
New exchange energy                            :    -12.867292115 Eh
Exchange energy change after final integration :      0.000112953 Eh
Total energy after final integration           :   -704.005643148 Eh
             **** ENERGY FILE WAS UPDATED (orca.en.tmp) ****

----------------
TOTAL SCF ENERGY
----------------

Total Energy       :       -704.00564314808810 Eh          -19156.96747 eV

Components:
Nuclear Repulsion  :        401.57108738902093 Eh           10927.30482 eV
Electronic Energy  :      -1105.57684349039300 Eh          -30084.27537 eV
One Electron Energy:      -1762.28943692273606 Eh          -47954.33353 eV
Two Electron Energy:        656.71259343234294 Eh           17870.05816 eV

Virial components:
Potential Energy   :      -1404.40810360523528 Eh          -38215.88736 eV
Kinetic Energy     :        700.40246045714719 Eh           19058.91989 eV
Virial Ratio       :          2.00514444607831

DFT components:
N(Alpha)           :       31.000022185864 electrons
N(Beta)            :       31.000022185864 electrons
N(Total)           :       62.000044371727 electrons
E(X)               :      -51.147391200727 Eh       
E(C)               :       -2.633977218430 Eh       
E(XC)              :      -53.781368419157 Eh       

---------------
SCF CONVERGENCE
---------------

  Last Energy change         ...    9.4656e-10  Tolerance :   1.0000e-08
  Last MAX-Density change    ...    6.1081e-05  Tolerance :   1.0000e-07
  Last RMS-Density change    ...    3.5361e-06  Tolerance :   5.0000e-09
  Last DIIS Error            ...    1.4347e-03  Tolerance :   5.0000e-07
  Last Orbital Gradient      ...    1.2212e-05  Tolerance :   1.0000e-05
  Last Orbital Rotation      ...    1.0528e-05  Tolerance :   1.0000e-05


----------------
ORBITAL ENERGIES
----------------

  NO   OCC          E(Eh)            E(eV) 
   0   2.0000     -89.047894     -2423.1164 
   1   2.0000     -19.113183      -520.0962 
   2   2.0000     -19.113129      -520.0947 
   3   2.0000     -10.230470      -278.3853 
   4   2.0000     -10.230451      -278.3847 
   5   2.0000     -10.224033      -278.2101 
   6   2.0000     -10.223364      -278.1919 
   7   2.0000      -8.115178      -220.8252 
   8   2.0000      -6.082863      -165.5231 
   9   2.0000      -6.082850      -165.5228 
  10   2.0000      -6.082086      -165.5020 
  11   2.0000      -1.087369       -29.5888 
  12   2.0000      -0.979259       -26.6470 
  13   2.0000      -0.859368       -23.3846 
  14   2.0000      -0.755806       -20.5665 
  15   2.0000      -0.715418       -19.4675 
  16   2.0000      -0.593653       -16.1541 
  17   2.0000      -0.578661       -15.7462 
  18   2.0000      -0.517521       -14.0825 
  19   2.0000      -0.484644       -13.1878 
  20   2.0000      -0.458977       -12.4894 
  21   2.0000      -0.453310       -12.3352 
  22   2.0000      -0.452148       -12.3036 
  23   2.0000      -0.430436       -11.7128 
  24   2.0000      -0.420793       -11.4504 
  25   2.0000      -0.401999       -10.9389 
  26   2.0000      -0.317865        -8.6495 
  27   2.0000      -0.308703        -8.4002 
  28   2.0000      -0.296735        -8.0746 
  29   2.0000      -0.283274        -7.7083 
  30   2.0000      -0.279937        -7.6175 
  31   0.0000      -0.018964        -0.5160 
  32   0.0000       0.046792         1.2733 
  33   0.0000       0.056710         1.5432 
  34   0.0000       0.062492         1.7005 
  35   0.0000       0.067102         1.8259 
  36   0.0000       0.069084         1.8799 
  37   0.0000       0.090647         2.4666 
  38   0.0000       0.103510         2.8167 
  39   0.0000       0.116065         3.1583 
  40   0.0000       0.121019         3.2931 
  41   0.0000       0.170673         4.6442 
*Only the first 10 virtual orbitals were printed.

                    ********************************
                    * MULLIKEN POPULATION ANALYSIS *
                    ********************************

-----------------------
MULLIKEN ATOMIC CHARGES
-----------------------
   0 C :   -0.072470
   1 H :    0.024700
   2 C :    0.048866
   3 H :    0.070651
   4 H :    0.070651
   5 C :   -0.072471
   6 C :    0.048866
   7 H :    0.070651
   8 H :    0.024700
   9 H :    0.070651
  10 S :    0.675158
  11 O :   -0.479977
  12 O :   -0.479977
Sum of atomic charges:    0.0000000

--------------------------------
MULLIKEN REDUCED ORBITAL CHARGES
--------------------------------
  0 C s       :     3.179743  s :     3.179743
      pz      :     0.952234  p :     2.857306
      px      :     1.002082
      py      :     0.902990
      dz2     :     0.008678  d :     0.035421
      dxz     :     0.007315
      dyz     :     0.012598
      dx2y2   :     0.004480
      dxy     :     0.002349

  1 H s       :     0.952518  s :     0.952518
      pz      :     0.006758  p :     0.022782
      px      :     0.004548
      py      :     0.011476

  2 C s       :     2.993121  s :     2.993121
      pz      :     0.965981  p :     2.925516
      px      :     1.045461
      py      :     0.914074
      dz2     :     0.002887  d :     0.032498
      dxz     :     0.007494
      dyz     :     0.010652
      dx2y2   :     0.007290
      dxy     :     0.004174

  3 H s       :     0.906746  s :     0.906746
      pz      :     0.006858  p :     0.022603
      px      :     0.011656
      py      :     0.004089

  4 H s       :     0.906746  s :     0.906746
      pz      :     0.006859  p :     0.022603
      px      :     0.011655
      py      :     0.004089

  5 C s       :     3.179743  s :     3.179743
      pz      :     0.952235  p :     2.857306
      px      :     1.002082
      py      :     0.902990
      dz2     :     0.008678  d :     0.035421
      dxz     :     0.007315
      dyz     :     0.012598
      dx2y2   :     0.004480
      dxy     :     0.002349

  6 C s       :     2.993120  s :     2.993120
      pz      :     0.965981  p :     2.925516
      px      :     1.045461
      py      :     0.914074
      dz2     :     0.002887  d :     0.032498
      dxz     :     0.007494
      dyz     :     0.010652
      dx2y2   :     0.007290
      dxy     :     0.004174

  7 H s       :     0.906746  s :     0.906746
      pz      :     0.006858  p :     0.022602
      px      :     0.011656
      py      :     0.004089

  8 H s       :     0.952518  s :     0.952518
      pz      :     0.006758  p :     0.022782
      px      :     0.004548
      py      :     0.011476

  9 H s       :     0.906746  s :     0.906746
      pz      :     0.006859  p :     0.022603
      px      :     0.011655
      py      :     0.004089

 10 S s       :     5.495034  s :     5.495034
      pz      :     3.157243  p :     9.172832
      px      :     2.925089
      py      :     3.090500
      dz2     :     0.054560  d :     0.656976
      dxz     :     0.123139
      dyz     :     0.146234
      dx2y2   :     0.182589
      dxy     :     0.150454

 11 O s       :     3.853162  s :     3.853162
      pz      :     1.695900  p :     4.609237
      px      :     1.332742
      py      :     1.580595
      dz2     :     0.001955  d :     0.017578
      dxz     :     0.003678
      dyz     :     0.001221
      dx2y2   :     0.005232
      dxy     :     0.005492

 12 O s       :     3.853163  s :     3.853163
      pz      :     1.695901  p :     4.609237
      px      :     1.332719
      py      :     1.580617
      dz2     :     0.001955  d :     0.017578
      dxz     :     0.003678
      dyz     :     0.001220
      dx2y2   :     0.005232
      dxy     :     0.005492



                     *******************************
                     * LOEWDIN POPULATION ANALYSIS *
                     *******************************

----------------------
LOEWDIN ATOMIC CHARGES
----------------------
   0 C :   -0.043182
   1 H :    0.034930
   2 C :   -0.139352
   3 H :    0.043222
   4 H :    0.043222
   5 C :   -0.043182
   6 C :   -0.139351
   7 H :    0.043222
   8 H :    0.034930
   9 H :    0.043222
  10 S :    1.169341
  11 O :   -0.523511
  12 O :   -0.523511

-------------------------------
LOEWDIN REDUCED ORBITAL CHARGES
-------------------------------
  0 C s       :     2.877474  s :     2.877474
      pz      :     1.074149  p :     3.076239
      px      :     0.977307
      py      :     1.024782
      dz2     :     0.025694  d :     0.089469
      dxz     :     0.013811
      dyz     :     0.034952
      dx2y2   :     0.010937
      dxy     :     0.004074

  1 H s       :     0.896592  s :     0.896592
      pz      :     0.019035  p :     0.068478
      px      :     0.014499
      py      :     0.034944

  2 C s       :     2.908152  s :     2.908152
      pz      :     1.028119  p :     3.152604
      px      :     1.098629
      py      :     1.025856
      dz2     :     0.005386  d :     0.078596
      dxz     :     0.019886
      dyz     :     0.025434
      dx2y2   :     0.019150
      dxy     :     0.008739

  3 H s       :     0.886311  s :     0.886311
      pz      :     0.023411  p :     0.070467
      px      :     0.033961
      py      :     0.013095

  4 H s       :     0.886311  s :     0.886311
      pz      :     0.023412  p :     0.070467
      px      :     0.033959
      py      :     0.013095

  5 C s       :     2.877474  s :     2.877474
      pz      :     1.074149  p :     3.076239
      px      :     0.977307
      py      :     1.024782
      dz2     :     0.025694  d :     0.089469
      dxz     :     0.013811
      dyz     :     0.034952
      dx2y2   :     0.010937
      dxy     :     0.004074

  6 C s       :     2.908152  s :     2.908152
      pz      :     1.028119  p :     3.152604
      px      :     1.098629
      py      :     1.025855
      dz2     :     0.005386  d :     0.078596
      dxz     :     0.019886
      dyz     :     0.025434
      dx2y2   :     0.019150
      dxy     :     0.008739

  7 H s       :     0.886311  s :     0.886311
      pz      :     0.023411  p :     0.070467
      px      :     0.033961
      py      :     0.013095

  8 H s       :     0.896592  s :     0.896592
      pz      :     0.019035  p :     0.068478
      px      :     0.014499
      py      :     0.034944

  9 H s       :     0.886311  s :     0.886311
      pz      :     0.023412  p :     0.070467
      px      :     0.033959
      py      :     0.013095

 10 S s       :     5.100174  s :     5.100174
      pz      :     3.033886  p :     8.882860
      px      :     2.890127
      py      :     2.958847
      dz2     :     0.078071  d :     0.847626
      dxz     :     0.141428
      dyz     :     0.194659
      dx2y2   :     0.229505
      dxy     :     0.203963

 11 O s       :     3.697060  s :     3.697060
      pz      :     1.709284  p :     4.798174
      px      :     1.458417
      py      :     1.630472
      dz2     :     0.004186  d :     0.028277
      dxz     :     0.004416
      dyz     :     0.001436
      dx2y2   :     0.007695
      dxy     :     0.010544

 12 O s       :     3.697060  s :     3.697060
      pz      :     1.709285  p :     4.798174
      px      :     1.458402
      py      :     1.630487
      dz2     :     0.004187  d :     0.028277
      dxz     :     0.004416
      dyz     :     0.001436
      dx2y2   :     0.007696
      dxy     :     0.010543



                      *****************************
                      * MAYER POPULATION ANALYSIS *
                      *****************************

  NA   - Mulliken gross atomic population
  ZA   - Total nuclear charge
  QA   - Mulliken gross atomic charge
  VA   - Mayer's total valence
  BVA  - Mayer's bonded valence
  FA   - Mayer's free valence

  ATOM       NA         ZA         QA         VA         BVA        FA
  0 C      6.0725     6.0000    -0.0725     4.0230     4.0230    -0.0000
  1 H      0.9753     1.0000     0.0247     0.9874     0.9874     0.0000
  2 C      5.9511     6.0000     0.0489     3.7778     3.7778     0.0000
  3 H      0.9293     1.0000     0.0707     0.9964     0.9964    -0.0000
  4 H      0.9293     1.0000     0.0707     0.9964     0.9964    -0.0000
  5 C      6.0725     6.0000    -0.0725     4.0230     4.0230     0.0000
  6 C      5.9511     6.0000     0.0489     3.7778     3.7778     0.0000
  7 H      0.9293     1.0000     0.0707     0.9964     0.9964     0.0000
  8 H      0.9753     1.0000     0.0247     0.9874     0.9874     0.0000
  9 H      0.9293     1.0000     0.0707     0.9964     0.9964     0.0000
 10 S     15.3248    16.0000     0.6752     5.0599     5.0599    -0.0000
 11 O      8.4800     8.0000    -0.4800     1.9151     1.9151     0.0000
 12 O      8.4800     8.0000    -0.4800     1.9151     1.9151     0.0000

  Mayer bond orders larger than 0.100000
B(  0-C ,  1-H ) :   0.9752 B(  0-C ,  2-C ) :   1.0192 B(  0-C ,  5-C ) :   1.9277 
B(  2-C ,  3-H ) :   0.9213 B(  2-C ,  4-H ) :   0.9213 B(  2-C , 10-S ) :   0.8129 
B(  5-C ,  6-C ) :   1.0192 B(  5-C ,  8-H ) :   0.9752 B(  6-C ,  7-H ) :   0.9213 
B(  6-C ,  9-H ) :   0.9213 B(  6-C , 10-S ) :   0.8129 B( 10-S , 11-O ) :   1.6662 
B( 10-S , 12-O ) :   1.6662 

-------
TIMINGS
-------

Total SCF time: 0 days 0 hours 0 min 8 sec 

Total time                  ....       8.881 sec
Sum of individual times     ....       8.310 sec  ( 93.6%)

SCF preparation             ....       0.190 sec  (  2.1%)
Fock matrix formation       ....       7.897 sec  ( 88.9%)
  Startup                   ....       0.005 sec  (  0.1% of F)
  Split-RI-J                ....       0.688 sec  (  8.7% of F)
  Chain of spheres X        ....       6.136 sec  ( 77.7% of F)
  XC integration            ....       1.463 sec  ( 18.5% of F)
    XC Preparation          ....       0.000 sec  (  0.0% of XC)
    Basis function eval.    ....       0.402 sec  ( 27.4% of XC)
    Density eval.           ....       0.225 sec  ( 15.4% of XC)
    XC-Functional eval.     ....       0.076 sec  (  5.2% of XC)
    XC-Potential eval.      ....       0.254 sec  ( 17.3% of XC)
Diagonalization             ....       0.000 sec  (  0.0%)
Density matrix formation    ....       0.028 sec  (  0.3%)
Total Energy calculation    ....       0.015 sec  (  0.2%)
Population analysis         ....       0.023 sec  (  0.3%)
Orbital Transformation      ....       0.016 sec  (  0.2%)
Orbital Orthonormalization  ....       0.000 sec  (  0.0%)
DIIS solution               ....       0.075 sec  (  0.8%)
SOSCF solution              ....       0.066 sec  (  0.7%)
Finished LeanSCF after   8.9 sec

Maximum memory used throughout the entire LEANSCF-calculation: 11.5 MB


-------------------------------------------------------------------------------
                          DFT DISPERSION CORRECTION                            
                                                                               
                              DFTD3 V3.1  Rev 1                                
                          USING Becke-Johnson damping                          
-------------------------------------------------------------------------------
The B3LYP functional is recognized
Active option DFTDOPT                   ...         4   

molecular C6(AA) [au] = 2232.094758 


            DFT-D V3
 parameters
 s6 scaling factor         :     1.0000 
 a1 scaling factor         :     0.3981 
 s8 scaling factor         :     1.9889 
 a2 scaling factor         :     4.4211 
 ad hoc parameters k1-k3   :    16.0000     1.3333    -4.0000 

 Edisp/kcal,au: -14.875716233009  -0.023705960246 
 E6   /kcal   :  -6.685240077 
 E8   /kcal   :  -8.190476156 
 % E8         :  55.059373461 

-------------------------   ----------------
Dispersion correction           -0.023705960
-------------------------   ----------------


-------------------------   --------------------
FINAL SINGLE POINT ENERGY      -704.029349108334
-------------------------   --------------------



           ************************************************************
           *        Program running with 6 parallel MPI-processes     *
           *              working on a common directory               *
           ************************************************************
------------------------------------------------------------------------------
                         ORCA SCF GRADIENT CALCULATION
------------------------------------------------------------------------------

Nuc. rep. gradient        (SHARK) ... done (  0.0 sec)
HCore & Overlap gradient  (SHARK) ... done (  0.0 sec)
Split-RIJ-J gradient      (SHARK) ... done (  0.3 sec)
done (  4.9 sec)
XC gradient                       ... done (  0.8 sec)
Dispersion correction             ... done (  0.1 sec)

-------------------
DISPERSION GRADIENT
-------------------

   1   C   :   -0.000000000   -0.000350223    0.000194074
   2   H   :    0.000000004   -0.000280377    0.000126919
   3   C   :   -0.000000004   -0.000108105    0.000366283
   4   H   :   -0.000121609    0.000002441    0.000328910
   5   H   :    0.000121592    0.000002442    0.000328912
   6   C   :    0.000000000   -0.000350224   -0.000194075
   7   C   :   -0.000000003   -0.000108106   -0.000366283
   8   H   :   -0.000121608    0.000002441   -0.000328911
   9   H   :    0.000000004   -0.000280377   -0.000126919
  10   H   :    0.000121593    0.000002442   -0.000328912
  11   S   :    0.000000005    0.000342785    0.000000001
  12   O   :   -0.000375923    0.000562435    0.000000000
  13   O   :    0.000375949    0.000562426    0.000000001

Difference to translation invariance:
           :    0.0000000000    0.0000000000    0.0000000000

Difference to rotation invariance:
           :   -0.0000000000    0.0000000000   -0.0000000000

Norm of the Dispersion gradient    ...    0.0015252856
RMS gradient                       ...    0.0002442412
MAX gradient                       ...    0.0005624351

------------------
CARTESIAN GRADIENT
------------------

   1   C   :   -0.000000092   -0.000001079   -0.000059470
   2   H   :    0.000000001    0.000047048    0.000005848
   3   C   :   -0.000000093    0.000019964   -0.000189622
   4   H   :    0.000003137    0.000011091    0.000034427
   5   H   :   -0.000002870    0.000011198    0.000034575
   6   C   :    0.000000187   -0.000001923    0.000059620
   7   C   :   -0.000000258    0.000020109    0.000189842
   8   H   :    0.000002774    0.000011378   -0.000034768
   9   H   :   -0.000000140    0.000047087   -0.000005811
  10   H   :   -0.000002876    0.000011214   -0.000034767
  11   S   :    0.000000284    0.000131570   -0.000000050
  12   O   :   -0.000300497   -0.000154043   -0.000000068
  13   O   :    0.000300443   -0.000153614    0.000000244

Difference to translation invariance:
           :   -0.0000000000    0.0000000001    0.0000000000

Difference to rotation invariance:
           :    0.0000003331    0.0000007708    0.0000000915

Norm of the Cartesian gradient     ...    0.0005787333
RMS gradient                       ...    0.0000926715
MAX gradient                       ...    0.0003004972

-------
TIMINGS
-------

Total SCF gradient time     ....        6.100 sec

Densities                   ....       0.001 sec  (  0.0%)
One electron gradient       ....       0.042 sec  (  0.7%)
RI-J Coulomb gradient       ....       0.312 sec  (  5.1%)
COSX gradient               ....       4.883 sec  ( 80.0%)
XC gradient                 ....       0.811 sec  ( 13.3%)

Maximum memory used throughout the entire SCFGRAD-calculation: 28.3 MB


           ************************************************************
           *        Program running with 6 parallel MPI-processes     *
           *              working on a common directory               *
           ************************************************************

------------------------------------------------------------------------------
                              ORCA PROPERTY CALCULATIONS
------------------------------------------------------------------------------

GBWName                                 ... orca.gbw
Number of atoms                         ...     13
Number of basis functions               ...    132
Max core memory                         ...   4096 MB

Electric properties:
Dipole moment                           ... YES
Quadrupole moment                       ...  NO
Static polarizability (Dipole/Dipole)   ...  NO
Static polarizability (Dipole/Quad.)    ...  NO
Static polarizability (Quad./Quad.)     ...  NO
Static polarizability (Velocity)        ...  NO
Static hyperpolarizability              ...  NO

Atomic electric properties:
Dipole moment                           ...  NO
Quadrupole moment                       ...  NO
Static polarizability                   ...  NO

Choice of electric origin               ... Center of mass
Position of electric origin             ...     0.000022     0.106253     0.000001

General magnetic properties:
Magnetizability                         ...  NO

EPR properties:
g-Tensor (aka g-matrix)                 ...  NO
Zero-Field splitting spin-orbit         ...  NO
Zero-field splitting spin-spin          ...  NO
Hyperfine couplings                     ...  NO (   0 nuclei)
Quadrupole couplings                    ...  NO (   0 nuclei)
Contact density                         ...  NO (   0 nuclei)

NMR properties:
Chemical shifts                         ...  NO (   0 nuclei)
Spin-rotation constants                 ...  NO (   0 nuclei)
Spin-spin couplings                     ...  NO (   0 nuclei,    0 pairs)

Choice of magnetic origin               ... GIAO
Position of magnetic origin             ...     0.000000     0.000000     0.000000

Properties with geometric perturbations:
SCF Hessian                             ...  NO
IR spectrum                             ...  NO
VCD spectrum                            ...  NO
X-ray spectroscopy properties:
SCF XES/XAS/RIXS spectra                ...  NO

SCF SOC stabilization energy            ...  NO
Diagonal Born-Oppenheimer correction    ...  NO

-------------
DIPOLE MOMENT
-------------

Method             : SCF
Type of density    : Electron Density
Multiplicity       :   1
Irrep              :   0
Energy             :  -704.0056431480880974 Eh
Basis              : AO
                                X                 Y                 Z
Electronic contribution:      0.000086293       4.844682540       0.000001437
Nuclear contribution   :     -0.000135418      -6.676375727      -0.000003495
                        -----------------------------------------
Total Dipole Moment    :     -0.000049125      -1.831693187      -0.000002058
                        -----------------------------------------
Magnitude (a.u.)       :      1.831693188
Magnitude (Debye)      :      4.655794082



--------------------
Rotational spectrum 
--------------------
 
Rotational constants in cm-1:             0.129612             0.069387             0.064432 
Rotational constants in MHz :          3885.677793          2080.166412          1931.635821 

Dipole components along the rotational axes: 
x,y,z [a.u.] :    -1.831693    -0.000001     0.000053 
x,y,z [Debye]:    -4.655794    -0.000001     0.000134 

 

Dipole moment calculation done in   0.0 sec 

Maximum memory used throughout the entire PROP-calculation: 6.5 MB

--------------------------------
SUGGESTED CITATIONS FOR THIS RUN
--------------------------------

Below you find a list of papers that are relevant to this ORCA run
We neither can nor want to force you to cite these papers, but we appreciate if you do
You receive ORCA, which is the product of decades of hard work by many enthusiastic individuals, for free
The only thing we kindly ask in return is that you cite our papers,
We deeply appreciate it, if you show your appreciation for ORCA by not just citing the generic ORCA reference.

Please note that relegating all ORCA citations to the supporting information does *not* help us.
SI sections are not indexed - citations you put there will not count into any citation statistics
But we need these citations in order to attract the funding resources that allow us to do what we are doing

Therefore, if you are a happy ORCA user, please consider citing a few of the papers listed below in the main body of your paper

In addition to the list printed below, the program has created the file orca.bibtex that contains the list in bibtex format
You can import this file easily into all common literature databanks and citation aid programs


List of essential papers. We consider these as the minimum necessary citations

  1. Neese, F.
     Software update: the ORCA program system, version 6.0
     WIRES Comput. Molec. Sci. 2025 15(1), e70019
     doi.org/10.1002/wcms.7019

List of papers to cite with high priority. The work reported in these papers was absolutely
necessary for this run to complete.
Our perspective: the developers of density functionals and basis sets usually get cited in chemistry papers
Good! But without the algorithms to do something with them, the functionals or basis sets would not do anything.
Hence, in our opinion, the algorithm design and method developments papers are equally worthy of getting cited

  1. Neese, F.
     An improvement of the resolution of the identity approximation for the formation of the Coulomb matrix
     J. Comp. Chem. 2003 24(14), 1740-1747
     doi.org/10.1002/jcc.10318
  2. Neese, F.; Wennmohs, F.; Hansen, A.; Becker, U.
     Efficient, approximate and parallel Hartree-Fock and hybrid DFT calculations. A 'chain-of-spheres' algorithm for the Hartree-Fock exchange
     Chem. Phys. 2009 356(1-3), 98-109
     doi.org/10.1016/j.chemphys.2008.10.036
  3. Grimme, S.; Antony, J.; Ehrlich, S.; Krieg, H.
     A consistent and accurate ab initio parametrization of density functional dispersion correction (DFT-D) for the 94 elements H-Pu
     J. Chem. Phys. 2010 132 , 154104
     doi.org/10.1063/1.3382344
  4. Grimme, S.; Ehrlich, S.; Goerigk, L.
     Effect of the damping function in dispersion corrected density functional theory
     J. Comput. Chem. 2011 32(7), 1456-1465
     doi.org/10.1002/jcc.21759
  5. Helmich-Paris, B.; de Souza, B.; Neese, F.; Izsák, R.
     An improved chain of spheres for exchange algorithm
     J. Chem. Phys. 2021 155(10), 104109
     doi.org/10.1063/5.0058766
  6. Neese, F.
     The SHARK Integral Generation and Digestion System
     J. Comp. Chem. 2022 44(3), 381
     doi.org/10.1002/jcc.26942

List of suggested additional citations. These are papers that are important in the 'surrounding' of 
of this run, or papers that preceded the highly important papers. If you like your results we are grateful for a citation.

  1. Izsak, R.; Neese, F.
     An overlap fitted chain of spheres exchange method
     J. Chem. Phys. 2011 135 , 144105
     doi.org/10.1063/1.3646921
  2. Izsak, R.; Hansen, A.; Neese, F.
     The resolution of identity and chain of spheres approximations for the LPNO-CCSD singles Fock term
     Molec. Phys. 2012 110 , 2413-2417
     doi.org/10.1080/00268976.2012.687466
  3. Neese, F.
     The ORCA program system
     WIRES Comput. Molec. Sci. 2012 2(1), 73-78
     doi.org/10.1002/wcms.81
  4. Izsak, R.; Neese, F.; Klopper, W.
     Robust fitting techniques in the chain of spheres approximation to the Fock exchange: The role of the complementary space
     J. Chem. Phys. 2013 139 , 
     doi.org/10.1063/1.4819264
  5. Neese, F.
     Software update: the ORCA program system, version 4.0
     WIRES Comput. Molec. Sci. 2018 8(1), 1-6
     doi.org/10.1002/wcms.1327
  6. Neese, F.; Wennmohs, F.; Becker, U.; Riplinger, C.
     The ORCA quantum chemistry program package
     J. Chem. Phys. 2020 152(22), 224108
     doi.org/10.1063/5.0004608
  7. Neese, F.
     Software update: The ORCA program system—Version 5.0
     WIRES Comput. Molec. Sci. 2022 12(1), e1606
     doi.org/10.1002/wcms.1606

List of optional additional citations

  1. Neese, F.
     Approximate second-order SCF convergence for spin unrestricted wavefunctions
     Chem. Phys. Lett. 2000 325(1-3), 93-98
     doi.org/10.1016/s0009-2614(00)00662-x

Timings for individual modules:

Sum of individual times          ...       18.440 sec (=   0.307 min)
Startup calculation              ...        1.442 sec (=   0.024 min)   7.8 %
SCF iterations                   ...        9.884 sec (=   0.165 min)  53.6 %
Property calculations            ...        0.534 sec (=   0.009 min)   2.9 %
SCF Gradient evaluation          ...        6.581 sec (=   0.110 min)  35.7 %
                             ****ORCA TERMINATED NORMALLY****
TOTAL RUN TIME: 0 days 0 hours 0 minutes 19 seconds 4 msec
