
                                 *****************
                                 * O   R   C   A *
                                 *****************

                                            #,                                       
                                            ###                                      
                                            ####                                     
                                            #####                                    
                                            ######                                   
                                           ########,                                 
                                     ,,################,,,,,                         
                               ,,#################################,,                 
                          ,,##########################################,,             
                       ,#########################################, ''#####,          
                    ,#############################################,,   '####,        
                  ,##################################################,,,,####,       
                ,###########''''           ''''###############################       
              ,#####''   ,,,,##########,,,,          '''####'''          '####       
            ,##' ,,,,###########################,,,                        '##       
           ' ,,###''''                  '''############,,,                           
         ,,##''                                '''############,,,,        ,,,,,,###''
      ,#''                                            '''#######################'''  
     '                                                          ''''####''''         
             ,#######,   #######,   ,#######,      ##                                
            ,#'     '#,  ##    ##  ,#'     '#,    #''#        ,####,    ,#,          
            ##       ##  ##   ,#'  ##            #'  '#       #'       ,# #          
            ##       ##  #######   ##           ,######,      #####,      #          
            '#,     ,#'  ##    ##  '#,     ,#' ,#      #,     #,   #      #          
             '#######'   ##     ##  '#######'  #'      '#     '####' #    #          



                #########################################################
                #                        -***-                          #
                #          Department of theory and spectroscopy        #
                #                                                       #
                #                      Frank Neese                      #
                #                                                       #
                #     Directorship, Architecture, Infrastructure        #
                #                    SHARK, DRIVERS                     #
                #        Core code/Algorithms in most modules           #
                #                                                       #
                #        Max Planck Institute fuer Kohlenforschung      #
                #                Kaiser Wilhelm Platz 1                 #
                #                 D-45470 Muelheim/Ruhr                 #
                #                      Germany                          #
                #                                                       #
                #                  All rights reserved                  #
                #                        -***-                          #
                #########################################################


                         Program Version 6.1.0  -  RELEASE   -
                                (GIT: $679e74b$)
                          ($2025-06-10 18:02:51 +0200$)


 With contributions from (in alphabetic order):
[Max-Planck-Institut fuer Kohlenforschung]                               
  Daniel Aravena         : Magnetic Suceptibility                        
  Michael Atanasov       : Ab Initio Ligand Field Theory (pilot matlab implementation)
  Alexander A. Auer      : GIAO ZORA, VPT2 properties, NMR spectrum      
  Ute Becker             : All parallelization in ORCA, NUMFREQ, NUMCALC 
  Giovanni Bistoni       : ED, misc. LED, open-shell LED, HFLD           
  Dmytro Bykov           : pre 5.0 version of the SCF Hessian            
  Marcos Casanova-Páez   : Triplet and SCS-CIS(D). UHF-(DLPNO)-IP/EA/STEOM-CCSD. UHF-CVS-IP/STEOM-CCSD   
  Vijay G. Chilkuri      : MRCI spin determinant printing, contributions to CSF-ICE 
  Pauline Colinet        : FMM embedding                                 
  Dipayan Datta          : RHF DLPNO-CCSD density                        
  Achintya Kumar Dutta   : EOM-CC, STEOM-CC                              
  Nicolas Foglia         : Exact transition moments, OPA infrastructure, MCD improvements    
  Dmitry Ganyushin       : Spin-Orbit,Spin-Spin,Magnetic field MRCI      
  Miquel Garcia-Rates    : C-PCM and meta-GGA Hessian, CCSD/C-PCM, Gaussian charge scheme 
  Tiago L. C. Gouveia    : GS-ROHF, GS-ROCIS                             
  Yang Guo               : DLPNO-NEVPT2, F12-NEVPT2, CIM, IAO-localization        
  Andreas Hansen         : Spin unrestricted coupled pair/coupled cluster methods 
  Ingolf Harden          : AUTO-CI MPn and infrastructure                
  Benjamin Helmich-Paris : MC-RPA, TRAH-(SCF,CASSCF), AVAS, COSX integrals, SCF dyn. polar., MC-PDFT, srDFT 
  Lee Huntington         : MR-EOM, pCC                                   
  Robert Izsak           : Overlap fitted RIJCOSX, COSX-SCS-MP3, EOM     
  Riya Kayal             : Wick's Theorem for AUTO-CI, AUTO-CI UHF-CCSDT 
  Emily Kempfer          : AUTO-CI RHF CISDT and CCSDT, approximate NEVPT4
  Christian Kollmar      : KDIIS, OOCD, Brueckner-CCSD(T), CCSD density, CASPT2, CASPT2-K, improved NEVPT2 
  Axel Koslowski         : Symmetry handling                             
  Simone Kossmann        : meta-GGA functionals, TD-DFT gradient, OOMP2, (MP2 Hessian; deprecated post 5.0) 
  Lucas Lang             : DCDCAS, Hyperfine gauge corrections, ICE-SOC+SSC
  Marvin Lechner         : AUTO-CI (C++ implementation), FIC-MRCC        
  Spencer Leger          : CASSCF response                               
  Dagmar Lenk            : GEPOL surface, SMD, ORCA-2-JSON               
  Dimitrios Liakos       : Extrapolation schemes; Compound Job, Property file
  Dimitrios Manganas     : Further ROCIS development; embedding schemes. LFT, Crystal Embedding 
  Dimitrios Pantazis     : SARC Basis sets                               
  Anastasios Papadopoulos: AUTO-CI, single reference methods and gradients 
  Taras Petrenko         : pre 6.0 DFT Hessian and TD-DFT gradient,  ECA, NRVS 
  Petra Pikulova         : Analytic Raman intensities                    
  Peter Pinski           : DLPNO-MP2, DLPNO-MP2 Gradient                 
  Shashank Vittal Rao    : ES-AILFT, MagRelax                            
  Christoph Reimann      : Effective Core Potentials                     
  Marius Retegan         : Local ZFS, SOC                                
  Christoph Riplinger    : Optimizer, TS searches, QM/MM, DLPNO-CCSD(T), (RO)-DLPNO pert. Triples 
  Michael Roemelt        : Original ROCIS implementation, recursive CI coupling coefficients
  Masaaki Saitow         : Open-shell DLPNO-CCSD energy and density      
  Barbara Sandhoefer     : DKH picture change effects                    
  Yorick L. A. Schmerwitz: GMF and freeze-and-release deltaSCF, NEB S-IDPP initial path                    
  Kantharuban Sivalingam : CASSCF convergence/infrastructure, NEVPT2, NEVPT3, NEVPT4(SD), FIC-MRCI and CEPA variants
  Bernardo de Souza      : ESD, SOC TD-DFT                               
  Georgi L. Stoychev     : AutoAux, RI-MP2 NMR, DLPNO-MP2 response, X2C  
  Van Anh Tran           : RI-MP2 g-tensors                              
  Willem Van den Heuvel  : Paramagnetic NMR                              
  Zikuan Wang            : NOTCH, Electric field optimization            
  Frank Wennmohs         : Technical directorship and infrastructure     
  Hang Xu                : AUTO-CI-Response properties                   
                                                                         
[FACCTs GmbH]                                                            
  Markus Bursch, Nicolas Foglia, Miquel Garcia-Rates, Ingolf Harden, Hagen Neugebauer, Anastasios Papadopoulos, 
  Christoph Riplinger, Bernardo de Souza, Georgi L. Stoychev                                                    
                                                                 
  APM, various basis sets, CI-OPT, improved COSX, DLPNO-Multilevel,           
  DOCKER, DRACO, updates on ESD, Fragmentator, GOAT, IRC, LR-CPCM, L-BFGS, MBIS, meta-GGA TD-DFT gradient, ML-optimized integration grids, 
  MM, NACMEs, nearIR, NEB, NEB-TS, NL-DFT gradient (VV10), 2- and 3-layer-ONIOM, interface openCOSMO-RS, QMMM,   
  Crystal-QMMM, RESP, rigid body optimization, SF, symmetry and pop. for TD-DFT, various functionals, SOLVATOR                                   
                                                                         
[Other institutions]                                                     
  V. Asgeirsson          : NEB                                           
  Christoph Bannwarth    : sTDA-DFT, sTD-DFT, PBEh-3c, B97-3c, D3        
  Giovanni Bistoni       : ETS/NOCV, ADLD/ADEX, COVALED                  
  Martin Brehm           : Molecular dynamics                            
  Ronald Cardenas        : ETS/NOCV                                      
  Martina Colucci        : COVALED                                       
  Sebastian Ehlert       : rSCAN, r2SCAN, r2SCAN-3c, D4, dhf basis sets  
  Marvin Friede          : D4 for Fr, Ra, Ac-Lr                          
  Lars Goerigk           : TD-DFT with DH, B97 family of functionals     
  Stefan Grimme          : VdW corrections, initial TS optimization, DFT functionals, gCP, sTDA/sTD-DF 
  Waldemar Hujo          : DFT-NL                                        
  H. Jonsson             : NEB                                           
  Holger Kruse           : gCP                                           
  Marcel Mueller         : wB97X-3c, vDZP basis set                      
  Hagen Neugebauer       : wr2SCAN, Native XTB                           
  Gianluca Regni         : ADLD/ADEX                                     
  Tobias Risthaus        : pre 6.0 range-separated hybrid DFT and stability analysis
  Lukas Wittmann         : regularized MP2, r2SCAN double-hybrids, wr2SCAN        
                                                                         
We gratefully acknowledge several colleagues who have allowed us to      
interface, adapt or use parts of their codes:                            
  Ed Valeev, F. Pavosevic, A. Kumar             : LibInt (2-el integral package), F12 methods 
  Garnet Chan, S. Sharma, J. Yang, R. Olivares  : DMRG                   
  Ulf Ekstrom                                   : XCFun DFT Library      
  Mihaly Kallay                                 : mrcc  (arbitrary order and MRCC methods)
  Frank Weinhold                                : gennbo (NPA and NBO analysis)           
  Simon Mueller                                 : openCOSMO-RS                            
  Christopher J. Cramer and Donald G. Truhlar   : smd solvation model                     
  S Lehtola, MJT Oliveira, MAL Marques          : LibXC Library                           
  Liviu Ungur et al                             : ANISO software                          


 Your calculation uses the libint2 library for the computation of 2-el integrals
 For citations please refer to: http://libint.valeyev.net

 Your ORCA version has been built with support for libXC version: 7.0.0
 For citations please refer to: https://libxc.gitlab.io

 This ORCA versions uses:
   CBLAS   interface :  Fast vector & matrix operations
   LAPACKE interface :  Fast linear algebra routines
   SCALAPACK package :  Parallel linear algebra routines
   Shared memory     :  Shared parallel matrices
   BLAS/LAPACK       :  OpenBLAS 0.3.29  USE64BITINT DYNAMIC_ARCH NO_AFFINITY Zen SINGLE_THREADED
        Core in use  :  Zen
   Copyright (c) 2011-2014, The OpenBLAS Project


  ***********************************
  * Starting time: Wed Sep 10 13:34:44 2025
  * Host name:     wyk-Server
  * Process ID:    2285178
  * Working dir.:  /home/wyk/Documents/code/openQDC/MGMR/singlepointcalc/40/prod
  ***********************************

Your calculation utilizes the atom-pairwise dispersion correction
with the Becke-Johnson damping scheme (D3BJ)


Warning: RI is on but no J-basis has been assigned. Assigning Def2/J (nothing to worry about!)
================================================================================

----- Orbital basis set information -----
Your calculation utilizes the basis: def2-SVP
   F. Weigend and R. Ahlrichs, Phys. Chem. Chem. Phys. 7, 3297 (2005).

----- AuxJ basis set information -----
Your calculation utilizes the auxiliary basis: def2/J
   H-Rn: F. Weigend, Phys. Chem. Chem. Phys. 8, 1057 (2006).
   Fr-Lr: K. Eichkorn, F. Weigend, O. Treutler, R. Ahlrichs; Theor. Chem. Acc. 97, 119 (1997).

================================================================================
                                        WARNINGS
                       Please study these warnings very carefully!
================================================================================


================================================================================
                                       INPUT FILE
================================================================================
NAME = orca.inp
|  1> ! B3LYP def2-SVP d3 EnGrad 
|  2> %pal nprocs 6 end 
|  3> *xyz 0 1 
|  4> C   -1.92580923256143 0.49826006751108 0.07479091919617
|  5> C   -0.56500959667488 0.09035772609472 -0.44026181887101
|  6> H   -2.06434242588049 1.59114290326536 0.02250745088478
|  7> H   -2.05454445174688 0.19620727615288 1.12737352159301
|  8> H   -2.73615716266489 0.02494996397499 -0.50525462606647
|  9> C   0.63904627524318 0.05608269869228 0.45836808696015
| 10> O   1.89208174908932 0.51635004742385 0.05725413542666
| 11> C   0.05805924826448 -1.24042409518412 -0.03859842680779
| 12> H   0.47844590796093 0.3054683490177 1.5129784258408
| 13> H   -0.48570974849019 -1.88285404549935 0.66213151978482
| 14> H   0.62190136109556 -1.79051524555307 -0.80027661522578
| 15> H   2.05562021147011 0.2235097729142 -0.84838737355952
| 16> H   -0.35233813510479 0.40282858118948 -1.47138819915578
| 17> *
| 18> 
| 19>                          ****END OF INPUT****
================================================================================

                     *******************************
                     * Energy+Gradient Calculation *
                     *******************************

---------------------------------
CARTESIAN COORDINATES (ANGSTROEM)
---------------------------------
  C     -1.925809    0.498260    0.074791
  C     -0.565010    0.090358   -0.440262
  H     -2.064342    1.591143    0.022507
  H     -2.054544    0.196207    1.127374
  H     -2.736157    0.024950   -0.505255
  C      0.639046    0.056083    0.458368
  O      1.892082    0.516350    0.057254
  C      0.058059   -1.240424   -0.038598
  H      0.478446    0.305468    1.512978
  H     -0.485710   -1.882854    0.662132
  H      0.621901   -1.790515   -0.800277
  H      2.055620    0.223510   -0.848387
  H     -0.352338    0.402829   -1.471388

----------------------------
CARTESIAN COORDINATES (A.U.)
----------------------------
  NO LB      ZA    FRAG     MASS         X           Y           Z
   0 C     6.0000    0    12.011   -3.639252    0.941575    0.141334
   1 C     6.0000    0    12.011   -1.067713    0.170751   -0.831974
   2 H     1.0000    0     1.008   -3.901042    3.006824    0.042533
   3 H     1.0000    0     1.008   -3.882526    0.370778    2.130427
   4 H     1.0000    0     1.008   -5.170588    0.047149   -0.954793
   5 C     6.0000    0    12.011    1.207622    0.105981    0.866190
   6 O     8.0000    0    15.999    3.575516    0.975760    0.108195
   7 C     6.0000    0    12.011    0.109716   -2.344062   -0.072940
   8 H     1.0000    0     1.008    0.904132    0.577252    2.859115
   9 H     1.0000    0     1.008   -0.917858   -3.558078    1.251247
  10 H     1.0000    0     1.008    1.175223   -3.383583   -1.512304
  11 H     1.0000    0     1.008    3.884559    0.422372   -1.603220
  12 H     1.0000    0     1.008   -0.665823    0.761236   -2.780521

--------------------------------
INTERNAL COORDINATES (ANGSTROEM)
--------------------------------
 C      0   0   0     0.000000000000     0.00000000     0.00000000
 C      1   0   0     1.511105321330     0.00000000     0.00000000
 H      1   2   0     1.102868033536   111.37383413     0.00000000
 H      1   2   3     1.102605450873   110.89007175   240.22753520
 H      1   2   3     1.103240253304   111.49645947   120.63372223
 C      2   1   3     1.502817696149   121.59081691    87.15801016
 O      6   2   1     1.393856640096   122.72756581   221.66943322
 C      6   2   1     1.505141690304    60.85291149   109.84841471
 H      6   2   1     1.095531217005   116.93527268     2.14925998
 H      8   6   2     1.095181912262   119.05708851   252.09431310
 H      8   6   2     1.095751734942   117.60173059   107.57703178
 H      7   6   2     0.965757111209   108.78154767   318.03628627
 H      2   1   3     1.098220741914   114.68359708   302.47624574

---------------------------
INTERNAL COORDINATES (A.U.)
---------------------------
 C      0   0   0     0.000000000000     0.00000000     0.00000000
 C      1   0   0     2.855575216825     0.00000000     0.00000000
 H      1   2   0     2.084118545240   111.37383413     0.00000000
 H      1   2   3     2.083622335918   110.89007175   240.22753520
 H      1   2   3     2.084821938663   111.49645947   120.63372223
 C      2   1   3     2.839913874932   121.59081691    87.15801016
 O      6   2   1     2.634007319729   122.72756581   221.66943322
 C      6   2   1     2.844305587422    60.85291149   109.84841471
 H      6   2   1     2.070253971302   116.93527268     2.14925998
 H      8   6   2     2.069593880999   119.05708851   252.09431310
 H      8   6   2     2.070670689809   117.60173059   107.57703178
 H      7   6   2     1.825016452073   108.78154767   318.03628627
 H      2   1   3     2.075336436808   114.68359708   302.47624574

---------------------
BASIS SET INFORMATION
---------------------
There are 3 groups of distinct atoms

 Group   1 Type C   : 7s4p1d contracted to 3s2p1d pattern {511/31/1}
 Group   2 Type H   : 4s1p contracted to 2s1p pattern {31/1}
 Group   3 Type O   : 7s4p1d contracted to 3s2p1d pattern {511/31/1}

Atom   0C    basis set group =>   1
Atom   1C    basis set group =>   1
Atom   2H    basis set group =>   2
Atom   3H    basis set group =>   2
Atom   4H    basis set group =>   2
Atom   5C    basis set group =>   1
Atom   6O    basis set group =>   3
Atom   7C    basis set group =>   1
Atom   8H    basis set group =>   2
Atom   9H    basis set group =>   2
Atom  10H    basis set group =>   2
Atom  11H    basis set group =>   2
Atom  12H    basis set group =>   2
---------------------------------
AUXILIARY/J BASIS SET INFORMATION
---------------------------------
There are 3 groups of distinct atoms

 Group   1 Type C   : 12s5p4d2f1g contracted to 6s4p3d1f1g pattern {711111/2111/211/2/1}
 Group   2 Type H   : 5s2p1d contracted to 3s1p1d pattern {311/2/1}
 Group   3 Type O   : 12s5p4d2f1g contracted to 6s4p3d1f1g pattern {711111/2111/211/2/1}

Atom   0C    basis set group =>   1
Atom   1C    basis set group =>   1
Atom   2H    basis set group =>   2
Atom   3H    basis set group =>   2
Atom   4H    basis set group =>   2
Atom   5C    basis set group =>   1
Atom   6O    basis set group =>   3
Atom   7C    basis set group =>   1
Atom   8H    basis set group =>   2
Atom   9H    basis set group =>   2
Atom  10H    basis set group =>   2
Atom  11H    basis set group =>   2
Atom  12H    basis set group =>   2


           ************************************************************
           *        Program running with 6 parallel MPI-processes     *
           *              working on a common directory               *
           ************************************************************
------------------------------------------------------------------------------
                             ORCA STARTUP CALCULATIONS
                           -- RI-GTO INTEGRALS CHOSEN --
------------------------------------------------------------------------------
------------------------------------------------------------------------------
                   ___                                                        
                  /   \      - P O W E R E D   B Y -                         
                 /     \                                                     
                 |  |  |   _    _      __       _____    __    __             
                 |  |  |  | |  | |    /  \     |  _  \  |  |  /  |          
                  \  \/   | |  | |   /    \    | | | |  |  | /  /          
                 / \  \   | |__| |  /  /\  \   | |_| |  |  |/  /          
                |  |  |   |  __  | /  /__\  \  |    /   |      \           
                |  |  |   | |  | | |   __   |  |    \   |  |\   \          
                \     /   | |  | | |  |  |  |  | |\  \  |  | \   \       
                 \___/    |_|  |_| |__|  |__|  |_| \__\ |__|  \__/        
                                                                              
                      - O R C A' S   B I G   F R I E N D -                    
                                      &                                       
                       - I N T E G R A L  F E E D E R -                       
                                                                              
 v1 FN, 2020, v2 2021, v3 2022-2024                                           
------------------------------------------------------------------------------


----------------------
SHARK INTEGRAL PACKAGE
----------------------

Number of atoms                             ...     13
Number of basis functions                   ...    110
Number of shells                            ...     54
Maximum angular momentum                    ...      2
Integral batch strategy                     ... SHARK/LIBINT Hybrid
RI-J (if used) integral strategy            ... SPLIT-RIJ (Revised 2003 algorithm where possible)
Printlevel                                  ...      1
Contraction scheme used                     ... SEGMENTED contraction
Prescreening option                         ... SCHWARTZ
   Thresh                                   ... 2.500e-11
   Tcut                                     ... 2.500e-12
   Tpresel                                  ... 2.500e-12 
Coulomb Range Separation                    ... NOT USED
Exchange Range Separation                   ... NOT USED
Multipole approximations                    ... NOT USED
Finite Nucleus Model                        ... NOT USED
CABS basis                                  ... NOT available
Auxiliary Coulomb fitting basis             ... AVAILABLE
   # of basis functions in Aux-J            ...    333
   # of shells in Aux-J                     ...    115
   Maximum angular momentum in Aux-J        ...      4
Auxiliary J/K fitting basis                 ... NOT available
Auxiliary Correlation fitting basis         ... NOT available
Auxiliary 'external' fitting basis          ... NOT available

Checking pre-screening integrals            ... done (  0.0 sec) Dimension = 54
   => SHARK Basis and OBASIS are compatible. Storing Pre-screening
Shell pair information
Shell pair cut-off parameter TPreSel        ...   2.5e-12
Total number of shell pairs                 ...      1485
Shell pairs after pre-screening             ...      1463
Total number of primitive shell pairs       ...      5139
Primitive shell pairs kept                  ...      4074
          la=0 lb=0:    489 shell pairs
          la=1 lb=0:    548 shell pairs
          la=1 lb=1:    169 shell pairs
          la=2 lb=0:    153 shell pairs
          la=2 lb=1:     89 shell pairs
          la=2 lb=2:     15 shell pairs

Checking whether 4 symmetric matrices of dimension 110 fit in memory
:Max Core in MB      =   4096.00
 MB in use           =      5.17
 MB left             =   4090.83
 MB needed           =      0.19
 Data fit in memory  = YES
Calculating RI/J V-Matrix + Cholesky decomp.... done (  0.0 sec)
Calculating Nuclear repulsion               ... done (  0.0 sec) ENN=    180.217969602934 Eh

Diagonalization of the overlap matrix:
Smallest eigenvalue                        ... 1.730e-03
Time for diagonalization                   ...    0.001 sec
Threshold for overlap eigenvalues          ... 1.000e-07
Number of eigenvalues below threshold      ... 0
Time for construction of square roots      ...    0.001 sec
Total time needed                          ...    0.003 sec

-------------------
DFT GRID GENERATION
-------------------

General Integration Accuracy     IntAcc      ... 4.388
Radial Grid Type                 RadialGrid  ... OptM3 with GC (2021)
Angular Grid (max. ang.)         AngularGrid ... 4 (Lebedev-302)
Angular grid pruning method      GridPruning ... 4 (adaptive)
Weight generation scheme         WeightScheme... mBecke (2022)
Basis function cutoff            BFCut       ... 1.0000e-11
Integration weight cutoff        WCut        ... 1.0000e-14
Partially contracted basis set               ... off
Rotationally invariant grid construction     ... off
Angular grids for H and He will be reduced by one unit

Total number of grid points                  ...    56050
Total number of batches                      ...      884
Average number of points per batch           ...       63
Average number of grid points per atom       ...     4312

--------------------
COSX GRID GENERATION
--------------------

GRIDX 1
-------
General Integration Accuracy     IntAcc      ... 3.816
Radial Grid Type                 RadialGrid  ... OptM3 with GC (2021)
Angular Grid (max. ang.)         AngularGrid ... 1 (Lebedev-50)
Angular grid pruning method      GridPruning ... 4 (adaptive)
Weight generation scheme         WeightScheme... mBecke (2022)
Basis function cutoff            BFCut       ... 1.0000e-11
Integration weight cutoff        WCut        ... 1.0000e-14
Partially contracted basis set               ... on
Rotationally invariant grid construction     ... off
Angular grids for H and He will be reduced by one unit

Total number of grid points                  ...     7191
Total number of batches                      ...       64
Average number of points per batch           ...      112
Average number of grid points per atom       ...      553
UseSFitting                                  ... on

GRIDX 2
-------
General Integration Accuracy     IntAcc      ... 4.020
Radial Grid Type                 RadialGrid  ... OptM3 with GC (2021)
Angular Grid (max. ang.)         AngularGrid ... 2 (Lebedev-110)
Angular grid pruning method      GridPruning ... 4 (adaptive)
Weight generation scheme         WeightScheme... mBecke (2022)
Basis function cutoff            BFCut       ... 1.0000e-11
Integration weight cutoff        WCut        ... 1.0000e-14
Partially contracted basis set               ... on
Rotationally invariant grid construction     ... off
Angular grids for H and He will be reduced by one unit

Total number of grid points                  ...    15222
Total number of batches                      ...      127
Average number of points per batch           ...      119
Average number of grid points per atom       ...     1171
UseSFitting                                  ... on

GRIDX 3
-------
General Integration Accuracy     IntAcc      ... 4.338
Radial Grid Type                 RadialGrid  ... OptM3 with GC (2021)
Angular Grid (max. ang.)         AngularGrid ... 3 (Lebedev-194)
Angular grid pruning method      GridPruning ... 4 (adaptive)
Weight generation scheme         WeightScheme... mBecke (2022)
Basis function cutoff            BFCut       ... 1.0000e-11
Integration weight cutoff        WCut        ... 1.0000e-14
Partially contracted basis set               ... on
Rotationally invariant grid construction     ... off
Angular grids for H and He will be reduced by one unit

Total number of grid points                  ...    33407
Total number of batches                      ...      266
Average number of points per batch           ...      125
Average number of grid points per atom       ...     2570
UseSFitting                                  ... on
Grids setup in   0.6 sec
Initializing property integral containers    ... done (  0.0 sec)

SHARK setup successfully completed in   0.7 seconds

Maximum memory used throughout the entire STARTUP-calculation: 15.8 MB


           ************************************************************
           *        Program running with 6 parallel MPI-processes     *
           *              working on a common directory               *
           ************************************************************
-------------------------------------------------------------------------------
                                 ORCA GUESS
                   Start orbitals & Density for SCF / CASSCF
-------------------------------------------------------------------------------

------------
SCF SETTINGS
------------
Hamiltonian:
 Density Functional     Method          .... DFT(GTOs)
 Exchange Functional    Exchange        .... B88
   X-Alpha parameter    XAlpha          ....  0.666667
   Becke's b parameter  XBeta           ....  0.004200
 Correlation Functional Correlation     .... LYP
 LDA part of GGA corr.  LDAOpt          .... VWN-5
 Gradients option       PostSCFGGA      .... off
 Hybrid DFT is turned on
   Fraction HF Exchange ScalHFX         ....  0.200000
   Scaling of DF-GGA-X  ScalDFX         ....  0.720000
   Scaling of DF-GGA-C  ScalDFC         ....  0.810000
   Scaling of DF-LDA-C  ScalLDAC        ....  1.000000
   Perturbative correction              ....  0.000000
   NL short-range parameter             ....  4.800000
 RI-approximation to the Coulomb term is turned on
   Number of AuxJ basis functions       .... 333
   RIJ-COSX (HFX calculated with COS-X)).... on


General Settings:
 Integral files         IntName         .... orca
 Hartree-Fock type      HFTyp           .... RHF
 Total Charge           Charge          ....    0
 Multiplicity           Mult            ....    1
 Number of Electrons    NEL             ....   40
 Basis Dimension        Dim             ....  110
 Nuclear Repulsion      ENuc            ....    180.2179696029 Eh

Convergence Acceleration:
 AO-DIIS                CNVDIIS         .... on
   Start iteration      DIISMaxIt       ....    12
   Startup error        DIISStart       ....  0.200000
   # of expansion vecs  DIISMaxEq       ....     5
   Bias factor          DIISBfac        ....   1.050
   Max. coefficient     DIISMaxC        ....  10.000
 MO-DIIS                CNVKDIIS        .... off
 Trust-Rad. Augm. Hess. CNVTRAH         .... auto
   Auto Start mean grad. ratio tolernc. ....  1.125000
   Auto Start start iteration           ....    50
   Auto Start num. interpolation iter.  ....    10
   Max. Number of Micro iterations      ....    24
   Max. Number of Macro iterations      .... Maxiter - #DIIS iter
   Number of Davidson start vectors     ....     2
   Converg. threshold    (grad. norm)   ....   1.000e-05
   Grad. Scal. Fac. for Micro threshold ....   0.100
   Minimum threshold for Micro iter.    ....   1.000e-02
   NR start threshold (gradient norm)   ....   1.000e-04
   Initial trust radius                 ....   0.400
   Minimum AH scaling param. (alpha)    ....   1.000
   Maximum AH scaling param. (alpha)    .... 1000.000
   Quad. conv. algorithm                .... NR
   White noise on init. David. guess    .... on
   Maximum white noise                  ....   0.010
   Pseudo random numbers                .... off
   Inactive MOs                         .... canonical
   Orbital update algorithm             .... Taylor
   Preconditioner                       .... Diag
   Full preconditioner red. dimension   ....   250
 SOSCF                 CNVSOSCF           .... on
   Start iteration     SOSCFMaxIt         ....   150
   Startup grad/error  SOSCFStart         ....  0.003300
   Hessian update      SOSCFHessUp        .... L-BFGS
   Autom. constraints  SOSCFAutoConstrain .... off
 Level Shifting         CNVShift        .... on
   Level shift para.    LevelShift      ....    0.2500
   Turn off err/grad.   ShiftErr        ....    0.0010
 Zerner damping         CNVZerner       .... off
 Static damping         CNVDamp         .... on
   Fraction old density DampFac         ....    0.7000
   Max. Damping (<1)    DampMax         ....    0.9800
   Min. Damping (>=0)   DampMin         ....    0.0000
   Turn off err/grad.   DampErr         ....    0.1000

SCF Procedure:
 Maximum # iterations   MaxIter         ....   125
 SCF integral mode      SCFMode         .... Direct
   Integral package                     .... SHARK and LIBINT hybrid scheme
 Reset frequency        DirectResetFreq ....    20
 Integral Threshold     Thresh          ....  2.500e-11 Eh
 Primitive CutOff       TCut            ....  2.500e-12 Eh

Convergence Tolerance:
 Convergence Check Mode ConvCheckMode   .... Total+1el-Energy
 Convergence forced     ConvForced      .... 0
 Energy Change          TolE            ....  1.000e-08 Eh
 1-El. energy change                    ....  1.000e-05 Eh
 Orbital Gradient       TolG            ....  1.000e-05
 Orbital Rotation angle TolX            ....  1.000e-05
 DIIS Error             TolErr          ....  5.000e-07

------------------------------
INITIAL GUESS: MODEL POTENTIAL
------------------------------
Loading Hartree-Fock densities                     ... done
Calculating cut-offs                               ... done
Initializing the effective Hamiltonian             ... done
Setting up the integral package (SHARK)            ... done
Starting the Coulomb interaction                   ... done (   0.0 sec)
Making the grid                                    ... done (   0.1 sec)
Mapping shells                                     ... done
Starting the XC term evaluation                    ... done (   0.0 sec)
  promolecular density results
     # of electrons  =     40.002167403
     EX              =    -31.148565712
     EC              =     -1.313962938
     EX+EC           =    -32.462528650
Transforming the Hamiltonian                       ... done (   0.0 sec)
Diagonalizing the Hamiltonian                      ... done (   0.0 sec)
Back transforming the eigenvectors                 ... done (   0.0 sec)
Now organizing SCF variables                       ... done
                      ------------------
                      INITIAL GUESS DONE (   0.1 sec)
                      ------------------
             **** ENERGY FILE WAS UPDATED (orca.en.tmp) ****
Finished Guess after   0.3 sec
Maximum memory used throughout the entire GUESS-calculation: 7.6 MB


           ************************************************************
           *        Program running with 6 parallel MPI-processes     *
           *              working on a common directory               *
           ************************************************************

-------------------------------------------------------------------------------------------
                                      ORCA LEAN-SCF
                              memory conserving SCF solver
-------------------------------------------------------------------------------------------

----------------------------------------D-I-I-S--------------------------------------------
Iteration    Energy (Eh)           Delta-E    RMSDP     MaxDP     DIISErr   Damp  Time(sec)
-------------------------------------------------------------------------------------------
               ***  Starting incremental Fock matrix formation  ***
    1    -231.9366003011485873     0.00e+00  1.03e-02  7.57e-02  2.37e-01  0.700   0.6
    2    -232.0149720391571009    -7.84e-02  7.11e-03  4.67e-02  1.07e-01  0.700   0.4
                               ***Turning on AO-DIIS***
    3    -232.0466695685159380    -3.17e-02  2.71e-03  1.51e-02  3.52e-02  0.700   0.3
    4    -232.0650953566205885    -1.84e-02  4.58e-03  2.52e-02  1.98e-02  0.000   0.3
    5    -232.1052503536104723    -4.02e-02  7.85e-04  3.71e-03  5.86e-03  0.000   0.3
                              *** Initializing SOSCF ***
---------------------------------------S-O-S-C-F--------------------------------------
Iteration    Energy (Eh)           Delta-E    RMSDP     MaxDP     MaxGrad    Time(sec)
--------------------------------------------------------------------------------------
    6    -232.1054353702699586    -1.85e-04  3.00e-04  1.39e-03  1.36e-03     0.3
               *** Restarting incremental Fock matrix formation ***
    7    -232.1054969424918113    -6.16e-05  2.03e-04  8.17e-04  1.77e-04     0.6
    8    -232.1054971743825490    -2.32e-07  5.82e-05  4.66e-04  2.12e-04     0.5
    9    -232.1054984800434795    -1.31e-06  1.81e-05  8.96e-05  2.25e-05     0.4
   10    -232.1054984651130439     1.49e-08  8.09e-06  5.60e-05  1.91e-05     0.4
   11    -232.1054984954108136    -3.03e-08  2.76e-06  1.80e-05  2.64e-06     0.4
   12    -232.1054984963598145    -9.49e-10  1.12e-06  7.75e-06  2.36e-06     0.3
                 **** Energy Check signals convergence ****

               *****************************************************
               *                     SUCCESS                       *
               *           SCF CONVERGED AFTER  12 CYCLES          *
               *****************************************************

Recomputing exchange energy using gridx3       ... done (    0.800 sec)
Old exchange energy                            :     -6.354402060 Eh
New exchange energy                            :     -6.354382704 Eh
Exchange energy change after final integration :      0.000019356 Eh
Total energy after final integration           :   -232.105479139 Eh
             **** ENERGY FILE WAS UPDATED (orca.en.tmp) ****

----------------
TOTAL SCF ENERGY
----------------

Total Energy       :       -232.10547913928497 Eh           -6315.91118 eV

Components:
Nuclear Repulsion  :        180.21796960293381 Eh            4903.98027 eV
Electronic Energy  :       -412.32346809793398 Eh          -11219.89198 eV
One Electron Energy:       -670.59529437317019 Eh          -18247.82566 eV
Two Electron Energy:        258.27182627523621 Eh            7027.93369 eV

Virial components:
Potential Energy   :       -461.83367661806335 Eh          -12567.13324 eV
Kinetic Energy     :        229.72819747877836 Eh            6251.22206 eV
Virial Ratio       :          2.01034823624874

DFT components:
N(Alpha)           :       20.000007917394 electrons
N(Beta)            :       20.000007917394 electrons
N(Total)           :       40.000015834788 electrons
E(X)               :      -25.212041709497 Eh       
E(C)               :       -1.557783836753 Eh       
E(XC)              :      -26.769825546249 Eh       

---------------
SCF CONVERGENCE
---------------

  Last Energy change         ...    9.4900e-10  Tolerance :   1.0000e-08
  Last MAX-Density change    ...    7.7475e-06  Tolerance :   1.0000e-07
  Last RMS-Density change    ...    1.1181e-06  Tolerance :   5.0000e-09
  Last DIIS Error            ...    1.3629e-03  Tolerance :   5.0000e-07
  Last Orbital Gradient      ...    2.3560e-06  Tolerance :   1.0000e-05
  Last Orbital Rotation      ...    2.7857e-06  Tolerance :   1.0000e-05


----------------
ORBITAL ENERGIES
----------------

  NO   OCC          E(Eh)            E(eV) 
   0   2.0000     -19.127997      -520.4993 
   1   2.0000     -10.232205      -278.4325 
   2   2.0000     -10.188342      -277.2389 
   3   2.0000     -10.183040      -277.0946 
   4   2.0000     -10.181883      -277.0631 
   5   2.0000      -1.011338       -27.5199 
   6   2.0000      -0.839752       -22.8508 
   7   2.0000      -0.700446       -19.0601 
   8   2.0000      -0.605513       -16.4768 
   9   2.0000      -0.570447       -15.5226 
  10   2.0000      -0.506820       -13.7913 
  11   2.0000      -0.471459       -12.8290 
  12   2.0000      -0.420657       -11.4466 
  13   2.0000      -0.403384       -10.9766 
  14   2.0000      -0.381326       -10.3764 
  15   2.0000      -0.371991       -10.1224 
  16   2.0000      -0.368828       -10.0363 
  17   2.0000      -0.347468        -9.4551 
  18   2.0000      -0.277851        -7.5607 
  19   2.0000      -0.236225        -6.4280 
  20   0.0000       0.054483         1.4826 
  21   0.0000       0.071689         1.9508 
  22   0.0000       0.080468         2.1897 
  23   0.0000       0.111084         3.0227 
  24   0.0000       0.128198         3.4884 
  25   0.0000       0.136587         3.7167 
  26   0.0000       0.142725         3.8837 
  27   0.0000       0.151713         4.1283 
  28   0.0000       0.166116         4.5202 
  29   0.0000       0.228644         6.2217 
  30   0.0000       0.249381         6.7860 
*Only the first 10 virtual orbitals were printed.

                    ********************************
                    * MULLIKEN POPULATION ANALYSIS *
                    ********************************

-----------------------
MULLIKEN ATOMIC CHARGES
-----------------------
   0 C :    0.090544
   1 C :   -0.154667
   2 H :    0.016436
   3 H :   -0.002555
   4 H :    0.012106
   5 C :    0.111643
   6 O :   -0.260429
   7 C :   -0.027341
   8 H :    0.012808
   9 H :    0.021916
  10 H :    0.015562
  11 H :    0.157373
  12 H :    0.006603
Sum of atomic charges:    0.0000000

--------------------------------
MULLIKEN REDUCED ORBITAL CHARGES
--------------------------------
  0 C s       :     2.953232  s :     2.953232
      pz      :     0.982772  p :     2.927023
      px      :     0.954553
      py      :     0.989698
      dz2     :     0.007156  d :     0.029200
      dxz     :     0.005855
      dyz     :     0.002525
      dx2y2   :     0.008507
      dxy     :     0.005157

  1 C s       :     3.152604  s :     3.152604
      pz      :     0.996985  p :     2.957849
      px      :     0.957222
      py      :     1.003642
      dz2     :     0.007820  d :     0.044214
      dxz     :     0.010138
      dyz     :     0.005735
      dx2y2   :     0.011027
      dxy     :     0.009495

  2 H s       :     0.960467  s :     0.960467
      pz      :     0.004974  p :     0.023096
      px      :     0.004349
      py      :     0.013773

  3 H s       :     0.979242  s :     0.979242
      pz      :     0.013128  p :     0.023313
      px      :     0.004520
      py      :     0.005665

  4 H s       :     0.964826  s :     0.964826
      pz      :     0.007325  p :     0.023068
      px      :     0.009135
      py      :     0.006607

  5 C s       :     3.087566  s :     3.087566
      pz      :     0.982653  p :     2.725000
      px      :     0.762105
      py      :     0.980243
      dz2     :     0.013068  d :     0.075792
      dxz     :     0.016734
      dyz     :     0.007299
      dx2y2   :     0.020879
      dxy     :     0.017811

  6 O s       :     3.702047  s :     3.702047
      pz      :     1.319178  p :     4.544998
      px      :     1.444217
      py      :     1.781604
      dz2     :     0.004219  d :     0.013384
      dxz     :     0.001320
      dyz     :     0.002035
      dx2y2   :     0.002824
      dxy     :     0.002985

  7 C s       :     3.063633  s :     3.063633
      pz      :     1.016420  p :     2.929426
      px      :     1.029961
      py      :     0.883044
      dz2     :     0.003848  d :     0.034283
      dxz     :     0.005189
      dyz     :     0.008980
      dx2y2   :     0.006946
      dxy     :     0.009320

  8 H s       :     0.966044  s :     0.966044
      pz      :     0.013791  p :     0.021147
      px      :     0.002306
      py      :     0.005051

  9 H s       :     0.955081  s :     0.955081
      pz      :     0.008684  p :     0.023003
      px      :     0.007168
      py      :     0.007150

 10 H s       :     0.961427  s :     0.961427
      pz      :     0.009314  p :     0.023011
      px      :     0.007288
      py      :     0.006409

 11 H s       :     0.773388  s :     0.773388
      pz      :     0.033218  p :     0.069238
      px      :     0.016279
      py      :     0.019742

 12 H s       :     0.971431  s :     0.971431
      pz      :     0.012888  p :     0.021966
      px      :     0.003685
      py      :     0.005394



                     *******************************
                     * LOEWDIN POPULATION ANALYSIS *
                     *******************************

----------------------
LOEWDIN ATOMIC CHARGES
----------------------
   0 C :   -0.045677
   1 C :   -0.063591
   2 H :    0.026771
   3 H :    0.022930
   4 H :    0.024348
   5 C :    0.055269
   6 O :   -0.114228
   7 C :   -0.065989
   8 H :    0.019891
   9 H :    0.024090
  10 H :    0.021577
  11 H :    0.074570
  12 H :    0.020041

-------------------------------
LOEWDIN REDUCED ORBITAL CHARGES
-------------------------------
  0 C s       :     2.838070  s :     2.838070
      pz      :     1.055246  p :     3.132813
      px      :     1.020756
      py      :     1.056811
      dz2     :     0.018568  d :     0.074794
      dxz     :     0.014802
      dyz     :     0.006286
      dx2y2   :     0.022478
      dxy     :     0.012661

  1 C s       :     2.835055  s :     2.835055
      pz      :     1.041028  p :     3.120460
      px      :     1.020652
      py      :     1.058780
      dz2     :     0.020955  d :     0.108077
      dxz     :     0.025658
      dyz     :     0.013285
      dx2y2   :     0.026628
      dxy     :     0.021550

  2 H s       :     0.909914  s :     0.909914
      pz      :     0.011849  p :     0.063315
      px      :     0.012305
      py      :     0.039161

  3 H s       :     0.913823  s :     0.913823
      pz      :     0.037028  p :     0.063248
      px      :     0.012282
      py      :     0.013938

  4 H s       :     0.912173  s :     0.912173
      pz      :     0.019340  p :     0.063479
      px      :     0.027129
      py      :     0.017010

  5 C s       :     2.814584  s :     2.814584
      pz      :     1.023028  p :     2.957611
      px      :     0.881581
      py      :     1.053002
      dz2     :     0.032823  d :     0.172536
      dxz     :     0.036273
      dyz     :     0.015400
      dx2y2   :     0.047949
      dxy     :     0.040091

  6 O s       :     3.434693  s :     3.434693
      pz      :     1.407502  p :     4.654022
      px      :     1.474930
      py      :     1.771591
      dz2     :     0.009323  d :     0.025513
      dxz     :     0.002693
      dyz     :     0.003692
      dx2y2   :     0.004961
      dxy     :     0.004844

  7 C s       :     2.837789  s :     2.837789
      pz      :     1.084255  p :     3.140488
      px      :     1.097553
      py      :     0.958680
      dz2     :     0.009091  d :     0.087713
      dxz     :     0.013699
      dyz     :     0.023627
      dx2y2   :     0.017074
      dxy     :     0.024222

  8 H s       :     0.914855  s :     0.914855
      pz      :     0.041071  p :     0.065255
      px      :     0.008877
      py      :     0.015307

  9 H s       :     0.906928  s :     0.906928
      pz      :     0.025635  p :     0.068982
      px      :     0.021856
      py      :     0.021491

 10 H s       :     0.909787  s :     0.909787
      pz      :     0.027837  p :     0.068636
      px      :     0.022165
      py      :     0.018635

 11 H s       :     0.746968  s :     0.746968
      pz      :     0.086900  p :     0.178462
      px      :     0.038194
      py      :     0.053368

 12 H s       :     0.911944  s :     0.911944
      pz      :     0.037953  p :     0.068015
      px      :     0.012996
      py      :     0.017067



                      *****************************
                      * MAYER POPULATION ANALYSIS *
                      *****************************

  NA   - Mulliken gross atomic population
  ZA   - Total nuclear charge
  QA   - Mulliken gross atomic charge
  VA   - Mayer's total valence
  BVA  - Mayer's bonded valence
  FA   - Mayer's free valence

  ATOM       NA         ZA         QA         VA         BVA        FA
  0 C      5.9095     6.0000     0.0905     3.9718     3.9718    -0.0000
  1 C      6.1547     6.0000    -0.1547     4.0063     4.0063     0.0000
  2 H      0.9836     1.0000     0.0164     0.9832     0.9832    -0.0000
  3 H      1.0026     1.0000    -0.0026     0.9953     0.9953     0.0000
  4 H      0.9879     1.0000     0.0121     0.9826     0.9826    -0.0000
  5 C      5.8884     6.0000     0.1116     4.0513     4.0513     0.0000
  6 O      8.2604     8.0000    -0.2604     2.1268     2.1268     0.0000
  7 C      6.0273     6.0000    -0.0273     3.8554     3.8554     0.0000
  8 H      0.9872     1.0000     0.0128     0.9916     0.9916     0.0000
  9 H      0.9781     1.0000     0.0219     0.9887     0.9887     0.0000
 10 H      0.9844     1.0000     0.0156     0.9909     0.9909     0.0000
 11 H      0.8426     1.0000     0.1574     1.0223     1.0223     0.0000
 12 H      0.9934     1.0000     0.0066     0.9895     0.9895     0.0000

  Mayer bond orders larger than 0.100000
B(  0-C ,  1-C ) :   1.0888 B(  0-C ,  2-H ) :   0.9655 B(  0-C ,  3-H ) :   0.9571 
B(  0-C ,  4-H ) :   0.9608 B(  1-C ,  5-C ) :   0.9375 B(  1-C ,  7-C ) :   0.9612 
B(  1-C , 12-H ) :   0.9418 B(  5-C ,  6-O ) :   1.0991 B(  5-C ,  7-C ) :   0.9855 
B(  5-C ,  8-H ) :   0.9544 B(  6-O , 11-H ) :   0.9742 B(  7-C ,  9-H ) :   0.9444 
B(  7-C , 10-H ) :   0.9471 

-------
TIMINGS
-------

Total SCF time: 0 days 0 hours 0 min 6 sec 

Total time                  ....       6.180 sec
Sum of individual times     ....       5.798 sec  ( 93.8%)

SCF preparation             ....       0.171 sec  (  2.8%)
Fock matrix formation       ....       5.434 sec  ( 87.9%)
  Startup                   ....       0.004 sec  (  0.1% of F)
  Split-RI-J                ....       0.434 sec  (  8.0% of F)
  Chain of spheres X        ....       4.032 sec  ( 74.2% of F)
  XC integration            ....       1.184 sec  ( 21.8% of F)
    XC Preparation          ....       0.000 sec  (  0.0% of XC)
    Basis function eval.    ....       0.367 sec  ( 31.0% of XC)
    Density eval.           ....       0.203 sec  ( 17.1% of XC)
    XC-Functional eval.     ....       0.075 sec  (  6.4% of XC)
    XC-Potential eval.      ....       0.223 sec  ( 18.9% of XC)
Diagonalization             ....       0.000 sec  (  0.0%)
Density matrix formation    ....       0.025 sec  (  0.4%)
Total Energy calculation    ....       0.015 sec  (  0.2%)
Population analysis         ....       0.019 sec  (  0.3%)
Orbital Transformation      ....       0.015 sec  (  0.2%)
Orbital Orthonormalization  ....       0.000 sec  (  0.0%)
DIIS solution               ....       0.068 sec  (  1.1%)
SOSCF solution              ....       0.052 sec  (  0.8%)
Finished LeanSCF after   6.2 sec

Maximum memory used throughout the entire LEANSCF-calculation: 9.8 MB


-------------------------------------------------------------------------------
                          DFT DISPERSION CORRECTION                            
                                                                               
                              DFTD3 V3.1  Rev 1                                
                          USING Becke-Johnson damping                          
-------------------------------------------------------------------------------
The B3LYP functional is recognized
Active option DFTDOPT                   ...         4   

molecular C6(AA) [au] = 1174.715201 


            DFT-D V3
 parameters
 s6 scaling factor         :     1.0000 
 a1 scaling factor         :     0.3981 
 s8 scaling factor         :     1.9889 
 a2 scaling factor         :     4.4211 
 ad hoc parameters k1-k3   :    16.0000     1.3333    -4.0000 

 Edisp/kcal,au: -9.140719331934  -0.014566661915 
 E6   /kcal   :  -4.489322488 
 E8   /kcal   :  -4.651396844 
 % E8         :  50.886551427 

-------------------------   ----------------
Dispersion correction           -0.014566662
-------------------------   ----------------


-------------------------   --------------------
FINAL SINGLE POINT ENERGY      -232.120045801200
-------------------------   --------------------



           ************************************************************
           *        Program running with 6 parallel MPI-processes     *
           *              working on a common directory               *
           ************************************************************
------------------------------------------------------------------------------
                         ORCA SCF GRADIENT CALCULATION
------------------------------------------------------------------------------

Nuc. rep. gradient        (SHARK) ... done (  0.0 sec)
HCore & Overlap gradient  (SHARK) ... done (  0.0 sec)
Split-RIJ-J gradient      (SHARK) ... done (  0.2 sec)
done (  3.2 sec)
XC gradient                       ... done (  0.6 sec)
Dispersion correction             ... done (  0.0 sec)

-------------------
DISPERSION GRADIENT
-------------------

   1   C   :   -0.000422158    0.000174528   -0.000009811
   2   C   :   -0.000089044    0.000018901   -0.000069858
   3   H   :   -0.000214912    0.000166136   -0.000004613
   4   H   :   -0.000247465    0.000072295    0.000109284
   5   H   :   -0.000261485    0.000055843   -0.000042729
   6   C   :    0.000288798   -0.000008913    0.000073929
   7   O   :    0.000371433    0.000137629    0.000029609
   8   C   :    0.000130282   -0.000293187   -0.000009410
   9   H   :    0.000146792    0.000053754    0.000220718
  10   H   :    0.000013610   -0.000279184    0.000075183
  11   H   :    0.000064189   -0.000232646   -0.000083054
  12   H   :    0.000241487    0.000068441   -0.000071124
  13   H   :   -0.000021528    0.000066403   -0.000218124

Difference to translation invariance:
           :    0.0000000000   -0.0000000000   -0.0000000000

Difference to rotation invariance:
           :    0.0000000000   -0.0000000000    0.0000000000

Norm of the Dispersion gradient    ...    0.0010676211
RMS gradient                       ...    0.0001709562
MAX gradient                       ...    0.0004221580

------------------
CARTESIAN GRADIENT
------------------

   1   C   :    0.000044310    0.000025751   -0.000107751
   2   C   :   -0.000028468    0.000082198    0.000086785
   3   H   :    0.000044968    0.000032084    0.000005585
   4   H   :    0.000050678    0.000026637    0.000033839
   5   H   :    0.000030885   -0.000073777    0.000010110
   6   C   :    0.000025034    0.000102418    0.000020960
   7   O   :   -0.000163279    0.000010208   -0.000038203
   8   C   :    0.000038595   -0.000076538    0.000049310
   9   H   :   -0.000020209   -0.000068537   -0.000019359
  10   H   :   -0.000008141   -0.000006951   -0.000058950
  11   H   :   -0.000009298   -0.000040745   -0.000014524
  12   H   :    0.000024806   -0.000018870    0.000020276
  13   H   :   -0.000029883    0.000006122    0.000011922

Difference to translation invariance:
           :    0.0000000001    0.0000000000    0.0000000000

Difference to rotation invariance:
           :    0.0000284916    0.0000224389   -0.0000393202

Norm of the Cartesian gradient     ...    0.0003261615
RMS gradient                       ...    0.0000522276
MAX gradient                       ...    0.0001632787

-------
TIMINGS
-------

Total SCF gradient time     ....        4.074 sec

Densities                   ....       0.000 sec  (  0.0%)
One electron gradient       ....       0.030 sec  (  0.7%)
RI-J Coulomb gradient       ....       0.201 sec  (  4.9%)
COSX gradient               ....       3.177 sec  ( 78.0%)
XC gradient                 ....       0.627 sec  ( 15.4%)

Maximum memory used throughout the entire SCFGRAD-calculation: 27.5 MB


           ************************************************************
           *        Program running with 6 parallel MPI-processes     *
           *              working on a common directory               *
           ************************************************************

------------------------------------------------------------------------------
                              ORCA PROPERTY CALCULATIONS
------------------------------------------------------------------------------

GBWName                                 ... orca.gbw
Number of atoms                         ...     13
Number of basis functions               ...    110
Max core memory                         ...   4096 MB

Electric properties:
Dipole moment                           ... YES
Quadrupole moment                       ...  NO
Static polarizability (Dipole/Dipole)   ...  NO
Static polarizability (Dipole/Quad.)    ...  NO
Static polarizability (Quad./Quad.)     ...  NO
Static polarizability (Velocity)        ...  NO
Static hyperpolarizability              ...  NO

Atomic electric properties:
Dipole moment                           ...  NO
Quadrupole moment                       ...  NO
Static polarizability                   ...  NO

Choice of electric origin               ... Center of mass
Position of electric origin             ...     0.108857     0.004433     0.033165

General magnetic properties:
Magnetizability                         ...  NO

EPR properties:
g-Tensor (aka g-matrix)                 ...  NO
Zero-Field splitting spin-orbit         ...  NO
Zero-field splitting spin-spin          ...  NO
Hyperfine couplings                     ...  NO (   0 nuclei)
Quadrupole couplings                    ...  NO (   0 nuclei)
Contact density                         ...  NO (   0 nuclei)

NMR properties:
Chemical shifts                         ...  NO (   0 nuclei)
Spin-rotation constants                 ...  NO (   0 nuclei)
Spin-spin couplings                     ...  NO (   0 nuclei,    0 pairs)

Choice of magnetic origin               ... GIAO
Position of magnetic origin             ...     0.000000     0.000000     0.000000

Properties with geometric perturbations:
SCF Hessian                             ...  NO
IR spectrum                             ...  NO
VCD spectrum                            ...  NO
X-ray spectroscopy properties:
SCF XES/XAS/RIXS spectra                ...  NO

SCF SOC stabilization energy            ...  NO
Diagonal Born-Oppenheimer correction    ...  NO

-------------
DIPOLE MOMENT
-------------

Method             : SCF
Type of density    : Electron Density
Multiplicity       :   1
Irrep              :   0
Energy             :  -232.1054791392849665 Eh
Basis              : AO
                                X                 Y                 Z
Electronic contribution:      4.326407901       0.620844856       0.021407734
Nuclear contribution   :     -4.661839684      -0.881816862      -0.412881547
                        -----------------------------------------
Total Dipole Moment    :     -0.335431783      -0.260972006      -0.391473813
                        -----------------------------------------
Magnitude (a.u.)       :      0.577817112
Magnitude (Debye)      :      1.468694381



--------------------
Rotational spectrum 
--------------------
 
Rotational constants in cm-1:             0.349493             0.116725             0.100641 
Rotational constants in MHz :         10477.548881          3499.341479          3017.145514 

Dipole components along the rotational axes: 
x,y,z [a.u.] :     0.347509     0.285885     0.362464 
x,y,z [Debye]:     0.883298     0.726661     0.921310 

 

Dipole moment calculation done in   0.0 sec 

Maximum memory used throughout the entire PROP-calculation: 5.6 MB

--------------------------------
SUGGESTED CITATIONS FOR THIS RUN
--------------------------------

Below you find a list of papers that are relevant to this ORCA run
We neither can nor want to force you to cite these papers, but we appreciate if you do
You receive ORCA, which is the product of decades of hard work by many enthusiastic individuals, for free
The only thing we kindly ask in return is that you cite our papers,
We deeply appreciate it, if you show your appreciation for ORCA by not just citing the generic ORCA reference.

Please note that relegating all ORCA citations to the supporting information does *not* help us.
SI sections are not indexed - citations you put there will not count into any citation statistics
But we need these citations in order to attract the funding resources that allow us to do what we are doing

Therefore, if you are a happy ORCA user, please consider citing a few of the papers listed below in the main body of your paper

In addition to the list printed below, the program has created the file orca.bibtex that contains the list in bibtex format
You can import this file easily into all common literature databanks and citation aid programs


List of essential papers. We consider these as the minimum necessary citations

  1. Neese, F.
     Software update: the ORCA program system, version 6.0
     WIRES Comput. Molec. Sci. 2025 15(1), e70019
     doi.org/10.1002/wcms.7019

List of papers to cite with high priority. The work reported in these papers was absolutely
necessary for this run to complete.
Our perspective: the developers of density functionals and basis sets usually get cited in chemistry papers
Good! But without the algorithms to do something with them, the functionals or basis sets would not do anything.
Hence, in our opinion, the algorithm design and method developments papers are equally worthy of getting cited

  1. Neese, F.
     An improvement of the resolution of the identity approximation for the formation of the Coulomb matrix
     J. Comp. Chem. 2003 24(14), 1740-1747
     doi.org/10.1002/jcc.10318
  2. Neese, F.; Wennmohs, F.; Hansen, A.; Becker, U.
     Efficient, approximate and parallel Hartree-Fock and hybrid DFT calculations. A 'chain-of-spheres' algorithm for the Hartree-Fock exchange
     Chem. Phys. 2009 356(1-3), 98-109
     doi.org/10.1016/j.chemphys.2008.10.036
  3. Grimme, S.; Antony, J.; Ehrlich, S.; Krieg, H.
     A consistent and accurate ab initio parametrization of density functional dispersion correction (DFT-D) for the 94 elements H-Pu
     J. Chem. Phys. 2010 132 , 154104
     doi.org/10.1063/1.3382344
  4. Grimme, S.; Ehrlich, S.; Goerigk, L.
     Effect of the damping function in dispersion corrected density functional theory
     J. Comput. Chem. 2011 32(7), 1456-1465
     doi.org/10.1002/jcc.21759
  5. Helmich-Paris, B.; de Souza, B.; Neese, F.; Izsák, R.
     An improved chain of spheres for exchange algorithm
     J. Chem. Phys. 2021 155(10), 104109
     doi.org/10.1063/5.0058766
  6. Neese, F.
     The SHARK Integral Generation and Digestion System
     J. Comp. Chem. 2022 44(3), 381
     doi.org/10.1002/jcc.26942

List of suggested additional citations. These are papers that are important in the 'surrounding' of 
of this run, or papers that preceded the highly important papers. If you like your results we are grateful for a citation.

  1. Izsak, R.; Neese, F.
     An overlap fitted chain of spheres exchange method
     J. Chem. Phys. 2011 135 , 144105
     doi.org/10.1063/1.3646921
  2. Izsak, R.; Hansen, A.; Neese, F.
     The resolution of identity and chain of spheres approximations for the LPNO-CCSD singles Fock term
     Molec. Phys. 2012 110 , 2413-2417
     doi.org/10.1080/00268976.2012.687466
  3. Neese, F.
     The ORCA program system
     WIRES Comput. Molec. Sci. 2012 2(1), 73-78
     doi.org/10.1002/wcms.81
  4. Izsak, R.; Neese, F.; Klopper, W.
     Robust fitting techniques in the chain of spheres approximation to the Fock exchange: The role of the complementary space
     J. Chem. Phys. 2013 139 , 
     doi.org/10.1063/1.4819264
  5. Neese, F.
     Software update: the ORCA program system, version 4.0
     WIRES Comput. Molec. Sci. 2018 8(1), 1-6
     doi.org/10.1002/wcms.1327
  6. Neese, F.; Wennmohs, F.; Becker, U.; Riplinger, C.
     The ORCA quantum chemistry program package
     J. Chem. Phys. 2020 152(22), 224108
     doi.org/10.1063/5.0004608
  7. Neese, F.
     Software update: The ORCA program system—Version 5.0
     WIRES Comput. Molec. Sci. 2022 12(1), e1606
     doi.org/10.1002/wcms.1606

List of optional additional citations

  1. Neese, F.
     Approximate second-order SCF convergence for spin unrestricted wavefunctions
     Chem. Phys. Lett. 2000 325(1-3), 93-98
     doi.org/10.1016/s0009-2614(00)00662-x

Timings for individual modules:

Sum of individual times          ...       13.190 sec (=   0.220 min)
Startup calculation              ...        1.113 sec (=   0.019 min)   8.4 %
SCF iterations                   ...        7.116 sec (=   0.119 min)  54.0 %
Property calculations            ...        0.416 sec (=   0.007 min)   3.2 %
SCF Gradient evaluation          ...        4.544 sec (=   0.076 min)  34.5 %
                             ****ORCA TERMINATED NORMALLY****
TOTAL RUN TIME: 0 days 0 hours 0 minutes 13 seconds 744 msec
