
                                 *****************
                                 * O   R   C   A *
                                 *****************

                                            #,                                       
                                            ###                                      
                                            ####                                     
                                            #####                                    
                                            ######                                   
                                           ########,                                 
                                     ,,################,,,,,                         
                               ,,#################################,,                 
                          ,,##########################################,,             
                       ,#########################################, ''#####,          
                    ,#############################################,,   '####,        
                  ,##################################################,,,,####,       
                ,###########''''           ''''###############################       
              ,#####''   ,,,,##########,,,,          '''####'''          '####       
            ,##' ,,,,###########################,,,                        '##       
           ' ,,###''''                  '''############,,,                           
         ,,##''                                '''############,,,,        ,,,,,,###''
      ,#''                                            '''#######################'''  
     '                                                          ''''####''''         
             ,#######,   #######,   ,#######,      ##                                
            ,#'     '#,  ##    ##  ,#'     '#,    #''#        ,####,    ,#,          
            ##       ##  ##   ,#'  ##            #'  '#       #'       ,# #          
            ##       ##  #######   ##           ,######,      #####,      #          
            '#,     ,#'  ##    ##  '#,     ,#' ,#      #,     #,   #      #          
             '#######'   ##     ##  '#######'  #'      '#     '####' #    #          



                #########################################################
                #                        -***-                          #
                #          Department of theory and spectroscopy        #
                #                                                       #
                #                      Frank Neese                      #
                #                                                       #
                #     Directorship, Architecture, Infrastructure        #
                #                    SHARK, DRIVERS                     #
                #        Core code/Algorithms in most modules           #
                #                                                       #
                #        Max Planck Institute fuer Kohlenforschung      #
                #                Kaiser Wilhelm Platz 1                 #
                #                 D-45470 Muelheim/Ruhr                 #
                #                      Germany                          #
                #                                                       #
                #                  All rights reserved                  #
                #                        -***-                          #
                #########################################################


                         Program Version 6.1.0  -  RELEASE   -
                                (GIT: $679e74b$)
                          ($2025-06-10 18:02:51 +0200$)


 With contributions from (in alphabetic order):
[Max-Planck-Institut fuer Kohlenforschung]                               
  Daniel Aravena         : Magnetic Suceptibility                        
  Michael Atanasov       : Ab Initio Ligand Field Theory (pilot matlab implementation)
  Alexander A. Auer      : GIAO ZORA, VPT2 properties, NMR spectrum      
  Ute Becker             : All parallelization in ORCA, NUMFREQ, NUMCALC 
  Giovanni Bistoni       : ED, misc. LED, open-shell LED, HFLD           
  Dmytro Bykov           : pre 5.0 version of the SCF Hessian            
  Marcos Casanova-Páez   : Triplet and SCS-CIS(D). UHF-(DLPNO)-IP/EA/STEOM-CCSD. UHF-CVS-IP/STEOM-CCSD   
  Vijay G. Chilkuri      : MRCI spin determinant printing, contributions to CSF-ICE 
  Pauline Colinet        : FMM embedding                                 
  Dipayan Datta          : RHF DLPNO-CCSD density                        
  Achintya Kumar Dutta   : EOM-CC, STEOM-CC                              
  Nicolas Foglia         : Exact transition moments, OPA infrastructure, MCD improvements    
  Dmitry Ganyushin       : Spin-Orbit,Spin-Spin,Magnetic field MRCI      
  Miquel Garcia-Rates    : C-PCM and meta-GGA Hessian, CCSD/C-PCM, Gaussian charge scheme 
  Tiago L. C. Gouveia    : GS-ROHF, GS-ROCIS                             
  Yang Guo               : DLPNO-NEVPT2, F12-NEVPT2, CIM, IAO-localization        
  Andreas Hansen         : Spin unrestricted coupled pair/coupled cluster methods 
  Ingolf Harden          : AUTO-CI MPn and infrastructure                
  Benjamin Helmich-Paris : MC-RPA, TRAH-(SCF,CASSCF), AVAS, COSX integrals, SCF dyn. polar., MC-PDFT, srDFT 
  Lee Huntington         : MR-EOM, pCC                                   
  Robert Izsak           : Overlap fitted RIJCOSX, COSX-SCS-MP3, EOM     
  Riya Kayal             : Wick's Theorem for AUTO-CI, AUTO-CI UHF-CCSDT 
  Emily Kempfer          : AUTO-CI RHF CISDT and CCSDT, approximate NEVPT4
  Christian Kollmar      : KDIIS, OOCD, Brueckner-CCSD(T), CCSD density, CASPT2, CASPT2-K, improved NEVPT2 
  Axel Koslowski         : Symmetry handling                             
  Simone Kossmann        : meta-GGA functionals, TD-DFT gradient, OOMP2, (MP2 Hessian; deprecated post 5.0) 
  Lucas Lang             : DCDCAS, Hyperfine gauge corrections, ICE-SOC+SSC
  Marvin Lechner         : AUTO-CI (C++ implementation), FIC-MRCC        
  Spencer Leger          : CASSCF response                               
  Dagmar Lenk            : GEPOL surface, SMD, ORCA-2-JSON               
  Dimitrios Liakos       : Extrapolation schemes; Compound Job, Property file
  Dimitrios Manganas     : Further ROCIS development; embedding schemes. LFT, Crystal Embedding 
  Dimitrios Pantazis     : SARC Basis sets                               
  Anastasios Papadopoulos: AUTO-CI, single reference methods and gradients 
  Taras Petrenko         : pre 6.0 DFT Hessian and TD-DFT gradient,  ECA, NRVS 
  Petra Pikulova         : Analytic Raman intensities                    
  Peter Pinski           : DLPNO-MP2, DLPNO-MP2 Gradient                 
  Shashank Vittal Rao    : ES-AILFT, MagRelax                            
  Christoph Reimann      : Effective Core Potentials                     
  Marius Retegan         : Local ZFS, SOC                                
  Christoph Riplinger    : Optimizer, TS searches, QM/MM, DLPNO-CCSD(T), (RO)-DLPNO pert. Triples 
  Michael Roemelt        : Original ROCIS implementation, recursive CI coupling coefficients
  Masaaki Saitow         : Open-shell DLPNO-CCSD energy and density      
  Barbara Sandhoefer     : DKH picture change effects                    
  Yorick L. A. Schmerwitz: GMF and freeze-and-release deltaSCF, NEB S-IDPP initial path                    
  Kantharuban Sivalingam : CASSCF convergence/infrastructure, NEVPT2, NEVPT3, NEVPT4(SD), FIC-MRCI and CEPA variants
  Bernardo de Souza      : ESD, SOC TD-DFT                               
  Georgi L. Stoychev     : AutoAux, RI-MP2 NMR, DLPNO-MP2 response, X2C  
  Van Anh Tran           : RI-MP2 g-tensors                              
  Willem Van den Heuvel  : Paramagnetic NMR                              
  Zikuan Wang            : NOTCH, Electric field optimization            
  Frank Wennmohs         : Technical directorship and infrastructure     
  Hang Xu                : AUTO-CI-Response properties                   
                                                                         
[FACCTs GmbH]                                                            
  Markus Bursch, Nicolas Foglia, Miquel Garcia-Rates, Ingolf Harden, Hagen Neugebauer, Anastasios Papadopoulos, 
  Christoph Riplinger, Bernardo de Souza, Georgi L. Stoychev                                                    
                                                                 
  APM, various basis sets, CI-OPT, improved COSX, DLPNO-Multilevel,           
  DOCKER, DRACO, updates on ESD, Fragmentator, GOAT, IRC, LR-CPCM, L-BFGS, MBIS, meta-GGA TD-DFT gradient, ML-optimized integration grids, 
  MM, NACMEs, nearIR, NEB, NEB-TS, NL-DFT gradient (VV10), 2- and 3-layer-ONIOM, interface openCOSMO-RS, QMMM,   
  Crystal-QMMM, RESP, rigid body optimization, SF, symmetry and pop. for TD-DFT, various functionals, SOLVATOR                                   
                                                                         
[Other institutions]                                                     
  V. Asgeirsson          : NEB                                           
  Christoph Bannwarth    : sTDA-DFT, sTD-DFT, PBEh-3c, B97-3c, D3        
  Giovanni Bistoni       : ETS/NOCV, ADLD/ADEX, COVALED                  
  Martin Brehm           : Molecular dynamics                            
  Ronald Cardenas        : ETS/NOCV                                      
  Martina Colucci        : COVALED                                       
  Sebastian Ehlert       : rSCAN, r2SCAN, r2SCAN-3c, D4, dhf basis sets  
  Marvin Friede          : D4 for Fr, Ra, Ac-Lr                          
  Lars Goerigk           : TD-DFT with DH, B97 family of functionals     
  Stefan Grimme          : VdW corrections, initial TS optimization, DFT functionals, gCP, sTDA/sTD-DF 
  Waldemar Hujo          : DFT-NL                                        
  H. Jonsson             : NEB                                           
  Holger Kruse           : gCP                                           
  Marcel Mueller         : wB97X-3c, vDZP basis set                      
  Hagen Neugebauer       : wr2SCAN, Native XTB                           
  Gianluca Regni         : ADLD/ADEX                                     
  Tobias Risthaus        : pre 6.0 range-separated hybrid DFT and stability analysis
  Lukas Wittmann         : regularized MP2, r2SCAN double-hybrids, wr2SCAN        
                                                                         
We gratefully acknowledge several colleagues who have allowed us to      
interface, adapt or use parts of their codes:                            
  Ed Valeev, F. Pavosevic, A. Kumar             : LibInt (2-el integral package), F12 methods 
  Garnet Chan, S. Sharma, J. Yang, R. Olivares  : DMRG                   
  Ulf Ekstrom                                   : XCFun DFT Library      
  Mihaly Kallay                                 : mrcc  (arbitrary order and MRCC methods)
  Frank Weinhold                                : gennbo (NPA and NBO analysis)           
  Simon Mueller                                 : openCOSMO-RS                            
  Christopher J. Cramer and Donald G. Truhlar   : smd solvation model                     
  S Lehtola, MJT Oliveira, MAL Marques          : LibXC Library                           
  Liviu Ungur et al                             : ANISO software                          


 Your calculation uses the libint2 library for the computation of 2-el integrals
 For citations please refer to: http://libint.valeyev.net

 Your ORCA version has been built with support for libXC version: 7.0.0
 For citations please refer to: https://libxc.gitlab.io

 This ORCA versions uses:
   CBLAS   interface :  Fast vector & matrix operations
   LAPACKE interface :  Fast linear algebra routines
   SCALAPACK package :  Parallel linear algebra routines
   Shared memory     :  Shared parallel matrices
   BLAS/LAPACK       :  OpenBLAS 0.3.29  USE64BITINT DYNAMIC_ARCH NO_AFFINITY Zen SINGLE_THREADED
        Core in use  :  Zen
   Copyright (c) 2011-2014, The OpenBLAS Project


  ***********************************
  * Starting time: Wed Sep 10 13:38:14 2025
  * Host name:     wyk-Server
  * Process ID:    2308335
  * Working dir.:  /home/wyk/Documents/code/openQDC/MGMR/singlepointcalc/100/react
  ***********************************

Your calculation utilizes the atom-pairwise dispersion correction
with the Becke-Johnson damping scheme (D3BJ)


Warning: RI is on but no J-basis has been assigned. Assigning Def2/J (nothing to worry about!)
================================================================================

----- Orbital basis set information -----
Your calculation utilizes the basis: def2-SVP
   F. Weigend and R. Ahlrichs, Phys. Chem. Chem. Phys. 7, 3297 (2005).

----- AuxJ basis set information -----
Your calculation utilizes the auxiliary basis: def2/J
   H-Rn: F. Weigend, Phys. Chem. Chem. Phys. 8, 1057 (2006).
   Fr-Lr: K. Eichkorn, F. Weigend, O. Treutler, R. Ahlrichs; Theor. Chem. Acc. 97, 119 (1997).

================================================================================
                                        WARNINGS
                       Please study these warnings very carefully!
================================================================================


================================================================================
                                       INPUT FILE
================================================================================
NAME = orca.inp
|  1> ! B3LYP def2-SVP d3 EnGrad 
|  2> %pal nprocs 6 end 
|  3> *xyz 0 1 
|  4> C   -1.58572291100237 -0.84160847213746 -3.39907657e-06
|  5> C   -0.5305697119271 -1.65722303210517 4.34652695e-06
|  6> O   1.82767320854265 0.45290828278285 -2.187280664e-05
|  7> N   0.97442679271533 1.26997020651757 6.031628749e-05
|  8> N   0.1572175531995 2.0501381356986 -4.056288043e-05
|  9> H   -2.04209833505612 -0.48866007686699 0.93039929342888
| 10> H   -2.04208985274357 -0.48866569200588 -0.93041253064561
| 11> H   -0.07175706986641 -2.0073967924413 0.93006512898811
| 12> H   -0.07174967386193 -2.00740255964219 -0.9300507200222
| 13> *
| 14> 
| 15>                          ****END OF INPUT****
================================================================================

                     *******************************
                     * Energy+Gradient Calculation *
                     *******************************

---------------------------------
CARTESIAN COORDINATES (ANGSTROEM)
---------------------------------
  C     -1.585723   -0.841608   -0.000003
  C     -0.530570   -1.657223    0.000004
  O      1.827673    0.452908   -0.000022
  N      0.974427    1.269970    0.000060
  N      0.157218    2.050138   -0.000041
  H     -2.042098   -0.488660    0.930399
  H     -2.042090   -0.488666   -0.930413
  H     -0.071757   -2.007397    0.930065
  H     -0.071750   -2.007403   -0.930051

----------------------------
CARTESIAN COORDINATES (A.U.)
----------------------------
  NO LB      ZA    FRAG     MASS         X           Y           Z
   0 C     6.0000    0    12.011   -2.996582   -1.590410   -0.000006
   1 C     6.0000    0    12.011   -1.002631   -3.131698    0.000008
   2 O     8.0000    0    15.999    3.453802    0.855873   -0.000041
   3 N     7.0000    0    14.007    1.841400    2.399896    0.000114
   4 N     7.0000    0    14.007    0.297098    3.874200   -0.000077
   5 H     1.0000    0     1.008   -3.859007   -0.923434    1.758200
   6 H     1.0000    0     1.008   -3.858991   -0.923444   -1.758225
   7 H     1.0000    0     1.008   -0.135601   -3.793430    1.757568
   8 H     1.0000    0     1.008   -0.135587   -3.793441   -1.757541

--------------------------------
INTERNAL COORDINATES (ANGSTROEM)
--------------------------------
 C      0   0   0     0.000000000000     0.00000000     0.00000000
 C      1   0   0     1.333632402130     0.00000000     0.00000000
 O      2   1   0     3.164484766704   100.47476830     0.00000000
 N      3   2   1     1.181363466548    85.58082462     0.00000000
 N      4   3   2     1.129819874604   179.91216802   354.05163499
 H      1   2   3     1.094760369956   121.80226290   270.00814542
 H      1   2   3     1.094760496030   121.80229959    89.99072012
 H      2   1   3     1.094597534263   121.82246810    89.78217654
 H      2   1   3     1.094597622713   121.82237746   270.21890936

---------------------------
INTERNAL COORDINATES (A.U.)
---------------------------
 C      0   0   0     0.000000000000     0.00000000     0.00000000
 C      1   0   0     2.520200003349     0.00000000     0.00000000
 O      2   1   0     5.980009564037   100.47476830     0.00000000
 N      3   2   1     2.232453416396    85.58082462     0.00000000
 N      4   3   2     2.135050143662   179.91216802   354.05163499
 H      1   2   3     2.068797281487   121.80226290   270.00814542
 H      1   2   3     2.068797519733   121.80229959    89.99072012
 H      2   1   3     2.068489566623   121.82246810    89.78217654
 H      2   1   3     2.068489733770   121.82237746   270.21890936

---------------------
BASIS SET INFORMATION
---------------------
There are 4 groups of distinct atoms

 Group   1 Type C   : 7s4p1d contracted to 3s2p1d pattern {511/31/1}
 Group   2 Type O   : 7s4p1d contracted to 3s2p1d pattern {511/31/1}
 Group   3 Type N   : 7s4p1d contracted to 3s2p1d pattern {511/31/1}
 Group   4 Type H   : 4s1p contracted to 2s1p pattern {31/1}

Atom   0C    basis set group =>   1
Atom   1C    basis set group =>   1
Atom   2O    basis set group =>   2
Atom   3N    basis set group =>   3
Atom   4N    basis set group =>   3
Atom   5H    basis set group =>   4
Atom   6H    basis set group =>   4
Atom   7H    basis set group =>   4
Atom   8H    basis set group =>   4
---------------------------------
AUXILIARY/J BASIS SET INFORMATION
---------------------------------
There are 4 groups of distinct atoms

 Group   1 Type C   : 12s5p4d2f1g contracted to 6s4p3d1f1g pattern {711111/2111/211/2/1}
 Group   2 Type O   : 12s5p4d2f1g contracted to 6s4p3d1f1g pattern {711111/2111/211/2/1}
 Group   3 Type N   : 12s5p4d2f1g contracted to 6s4p3d1f1g pattern {711111/2111/211/2/1}
 Group   4 Type H   : 5s2p1d contracted to 3s1p1d pattern {311/2/1}

Atom   0C    basis set group =>   1
Atom   1C    basis set group =>   1
Atom   2O    basis set group =>   2
Atom   3N    basis set group =>   3
Atom   4N    basis set group =>   3
Atom   5H    basis set group =>   4
Atom   6H    basis set group =>   4
Atom   7H    basis set group =>   4
Atom   8H    basis set group =>   4


           ************************************************************
           *        Program running with 6 parallel MPI-processes     *
           *              working on a common directory               *
           ************************************************************
------------------------------------------------------------------------------
                             ORCA STARTUP CALCULATIONS
                           -- RI-GTO INTEGRALS CHOSEN --
------------------------------------------------------------------------------
------------------------------------------------------------------------------
                   ___                                                        
                  /   \      - P O W E R E D   B Y -                         
                 /     \                                                     
                 |  |  |   _    _      __       _____    __    __             
                 |  |  |  | |  | |    /  \     |  _  \  |  |  /  |          
                  \  \/   | |  | |   /    \    | | | |  |  | /  /          
                 / \  \   | |__| |  /  /\  \   | |_| |  |  |/  /          
                |  |  |   |  __  | /  /__\  \  |    /   |      \           
                |  |  |   | |  | | |   __   |  |    \   |  |\   \          
                \     /   | |  | | |  |  |  |  | |\  \  |  | \   \       
                 \___/    |_|  |_| |__|  |__|  |_| \__\ |__|  \__/        
                                                                              
                      - O R C A' S   B I G   F R I E N D -                    
                                      &                                       
                       - I N T E G R A L  F E E D E R -                       
                                                                              
 v1 FN, 2020, v2 2021, v3 2022-2024                                           
------------------------------------------------------------------------------


----------------------
SHARK INTEGRAL PACKAGE
----------------------

Number of atoms                             ...      9
Number of basis functions                   ...     90
Number of shells                            ...     42
Maximum angular momentum                    ...      2
Integral batch strategy                     ... SHARK/LIBINT Hybrid
RI-J (if used) integral strategy            ... SPLIT-RIJ (Revised 2003 algorithm where possible)
Printlevel                                  ...      1
Contraction scheme used                     ... SEGMENTED contraction
Prescreening option                         ... SCHWARTZ
   Thresh                                   ... 2.500e-11
   Tcut                                     ... 2.500e-12
   Tpresel                                  ... 2.500e-12 
Coulomb Range Separation                    ... NOT USED
Exchange Range Separation                   ... NOT USED
Multipole approximations                    ... NOT USED
Finite Nucleus Model                        ... NOT USED
CABS basis                                  ... NOT available
Auxiliary Coulomb fitting basis             ... AVAILABLE
   # of basis functions in Aux-J            ...    289
   # of shells in Aux-J                     ...     95
   Maximum angular momentum in Aux-J        ...      4
Auxiliary J/K fitting basis                 ... NOT available
Auxiliary Correlation fitting basis         ... NOT available
Auxiliary 'external' fitting basis          ... NOT available

Checking pre-screening integrals            ... done (  0.0 sec) Dimension = 42
   => SHARK Basis and OBASIS are compatible. Storing Pre-screening
Shell pair information
Shell pair cut-off parameter TPreSel        ...   2.5e-12
Total number of shell pairs                 ...       903
Shell pairs after pre-screening             ...       872
Total number of primitive shell pairs       ...      3317
Primitive shell pairs kept                  ...      2437
          la=0 lb=0:    266 shell pairs
          la=1 lb=0:    309 shell pairs
          la=1 lb=1:    105 shell pairs
          la=2 lb=0:    107 shell pairs
          la=2 lb=1:     70 shell pairs
          la=2 lb=2:     15 shell pairs

Checking whether 4 symmetric matrices of dimension 90 fit in memory
:Max Core in MB      =   4096.00
 MB in use           =      4.38
 MB left             =   4091.62
 MB needed           =      0.12
 Data fit in memory  = YES
Calculating RI/J V-Matrix + Cholesky decomp.... done (  0.0 sec)
Calculating Nuclear repulsion               ... done (  0.0 sec) ENN=    147.677245151515 Eh

Diagonalization of the overlap matrix:
Smallest eigenvalue                        ... 1.716e-03
Time for diagonalization                   ...    0.001 sec
Threshold for overlap eigenvalues          ... 1.000e-07
Number of eigenvalues below threshold      ... 0
Time for construction of square roots      ...    0.001 sec
Total time needed                          ...    0.003 sec

-------------------
DFT GRID GENERATION
-------------------

General Integration Accuracy     IntAcc      ... 4.388
Radial Grid Type                 RadialGrid  ... OptM3 with GC (2021)
Angular Grid (max. ang.)         AngularGrid ... 4 (Lebedev-302)
Angular grid pruning method      GridPruning ... 4 (adaptive)
Weight generation scheme         WeightScheme... mBecke (2022)
Basis function cutoff            BFCut       ... 1.0000e-11
Integration weight cutoff        WCut        ... 1.0000e-14
Partially contracted basis set               ... off
Rotationally invariant grid construction     ... off
Angular grids for H and He will be reduced by one unit

Total number of grid points                  ...    43599
Total number of batches                      ...      686
Average number of points per batch           ...       63
Average number of grid points per atom       ...     4844

--------------------
COSX GRID GENERATION
--------------------

GRIDX 1
-------
General Integration Accuracy     IntAcc      ... 3.816
Radial Grid Type                 RadialGrid  ... OptM3 with GC (2021)
Angular Grid (max. ang.)         AngularGrid ... 1 (Lebedev-50)
Angular grid pruning method      GridPruning ... 4 (adaptive)
Weight generation scheme         WeightScheme... mBecke (2022)
Basis function cutoff            BFCut       ... 1.0000e-11
Integration weight cutoff        WCut        ... 1.0000e-14
Partially contracted basis set               ... on
Rotationally invariant grid construction     ... off
Angular grids for H and He will be reduced by one unit

Total number of grid points                  ...     5544
Total number of batches                      ...       50
Average number of points per batch           ...      110
Average number of grid points per atom       ...      616
UseSFitting                                  ... on

GRIDX 2
-------
General Integration Accuracy     IntAcc      ... 4.020
Radial Grid Type                 RadialGrid  ... OptM3 with GC (2021)
Angular Grid (max. ang.)         AngularGrid ... 2 (Lebedev-110)
Angular grid pruning method      GridPruning ... 4 (adaptive)
Weight generation scheme         WeightScheme... mBecke (2022)
Basis function cutoff            BFCut       ... 1.0000e-11
Integration weight cutoff        WCut        ... 1.0000e-14
Partially contracted basis set               ... on
Rotationally invariant grid construction     ... off
Angular grids for H and He will be reduced by one unit

Total number of grid points                  ...    12394
Total number of batches                      ...      101
Average number of points per batch           ...      122
Average number of grid points per atom       ...     1377
UseSFitting                                  ... on

GRIDX 3
-------
General Integration Accuracy     IntAcc      ... 4.338
Radial Grid Type                 RadialGrid  ... OptM3 with GC (2021)
Angular Grid (max. ang.)         AngularGrid ... 3 (Lebedev-194)
Angular grid pruning method      GridPruning ... 4 (adaptive)
Weight generation scheme         WeightScheme... mBecke (2022)
Basis function cutoff            BFCut       ... 1.0000e-11
Integration weight cutoff        WCut        ... 1.0000e-14
Partially contracted basis set               ... on
Rotationally invariant grid construction     ... off
Angular grids for H and He will be reduced by one unit

Total number of grid points                  ...    27422
Total number of batches                      ...      220
Average number of points per batch           ...      124
Average number of grid points per atom       ...     3047
UseSFitting                                  ... on
Grids setup in   0.5 sec
Initializing property integral containers    ... done (  0.0 sec)

SHARK setup successfully completed in   0.6 seconds

Maximum memory used throughout the entire STARTUP-calculation: 12.8 MB


           ************************************************************
           *        Program running with 6 parallel MPI-processes     *
           *              working on a common directory               *
           ************************************************************
-------------------------------------------------------------------------------
                                 ORCA GUESS
                   Start orbitals & Density for SCF / CASSCF
-------------------------------------------------------------------------------

------------
SCF SETTINGS
------------
Hamiltonian:
 Density Functional     Method          .... DFT(GTOs)
 Exchange Functional    Exchange        .... B88
   X-Alpha parameter    XAlpha          ....  0.666667
   Becke's b parameter  XBeta           ....  0.004200
 Correlation Functional Correlation     .... LYP
 LDA part of GGA corr.  LDAOpt          .... VWN-5
 Gradients option       PostSCFGGA      .... off
 Hybrid DFT is turned on
   Fraction HF Exchange ScalHFX         ....  0.200000
   Scaling of DF-GGA-X  ScalDFX         ....  0.720000
   Scaling of DF-GGA-C  ScalDFC         ....  0.810000
   Scaling of DF-LDA-C  ScalLDAC        ....  1.000000
   Perturbative correction              ....  0.000000
   NL short-range parameter             ....  4.800000
 RI-approximation to the Coulomb term is turned on
   Number of AuxJ basis functions       .... 289
   RIJ-COSX (HFX calculated with COS-X)).... on


General Settings:
 Integral files         IntName         .... orca
 Hartree-Fock type      HFTyp           .... RHF
 Total Charge           Charge          ....    0
 Multiplicity           Mult            ....    1
 Number of Electrons    NEL             ....   38
 Basis Dimension        Dim             ....   90
 Nuclear Repulsion      ENuc            ....    147.6772451515 Eh

Convergence Acceleration:
 AO-DIIS                CNVDIIS         .... on
   Start iteration      DIISMaxIt       ....    12
   Startup error        DIISStart       ....  0.200000
   # of expansion vecs  DIISMaxEq       ....     5
   Bias factor          DIISBfac        ....   1.050
   Max. coefficient     DIISMaxC        ....  10.000
 MO-DIIS                CNVKDIIS        .... off
 Trust-Rad. Augm. Hess. CNVTRAH         .... auto
   Auto Start mean grad. ratio tolernc. ....  1.125000
   Auto Start start iteration           ....    50
   Auto Start num. interpolation iter.  ....    10
   Max. Number of Micro iterations      ....    24
   Max. Number of Macro iterations      .... Maxiter - #DIIS iter
   Number of Davidson start vectors     ....     2
   Converg. threshold    (grad. norm)   ....   1.000e-05
   Grad. Scal. Fac. for Micro threshold ....   0.100
   Minimum threshold for Micro iter.    ....   1.000e-02
   NR start threshold (gradient norm)   ....   1.000e-04
   Initial trust radius                 ....   0.400
   Minimum AH scaling param. (alpha)    ....   1.000
   Maximum AH scaling param. (alpha)    .... 1000.000
   Quad. conv. algorithm                .... NR
   White noise on init. David. guess    .... on
   Maximum white noise                  ....   0.010
   Pseudo random numbers                .... off
   Inactive MOs                         .... canonical
   Orbital update algorithm             .... Taylor
   Preconditioner                       .... Diag
   Full preconditioner red. dimension   ....   250
 SOSCF                 CNVSOSCF           .... on
   Start iteration     SOSCFMaxIt         ....   150
   Startup grad/error  SOSCFStart         ....  0.003300
   Hessian update      SOSCFHessUp        .... L-BFGS
   Autom. constraints  SOSCFAutoConstrain .... off
 Level Shifting         CNVShift        .... on
   Level shift para.    LevelShift      ....    0.2500
   Turn off err/grad.   ShiftErr        ....    0.0010
 Zerner damping         CNVZerner       .... off
 Static damping         CNVDamp         .... on
   Fraction old density DampFac         ....    0.7000
   Max. Damping (<1)    DampMax         ....    0.9800
   Min. Damping (>=0)   DampMin         ....    0.0000
   Turn off err/grad.   DampErr         ....    0.1000

SCF Procedure:
 Maximum # iterations   MaxIter         ....   125
 SCF integral mode      SCFMode         .... Direct
   Integral package                     .... SHARK and LIBINT hybrid scheme
 Reset frequency        DirectResetFreq ....    20
 Integral Threshold     Thresh          ....  2.500e-11 Eh
 Primitive CutOff       TCut            ....  2.500e-12 Eh

Convergence Tolerance:
 Convergence Check Mode ConvCheckMode   .... Total+1el-Energy
 Convergence forced     ConvForced      .... 0
 Energy Change          TolE            ....  1.000e-08 Eh
 1-El. energy change                    ....  1.000e-05 Eh
 Orbital Gradient       TolG            ....  1.000e-05
 Orbital Rotation angle TolX            ....  1.000e-05
 DIIS Error             TolErr          ....  5.000e-07

------------------------------
INITIAL GUESS: MODEL POTENTIAL
------------------------------
Loading Hartree-Fock densities                     ... done
Calculating cut-offs                               ... done
Initializing the effective Hamiltonian             ... done
Setting up the integral package (SHARK)            ... done
Starting the Coulomb interaction                   ... done (   0.0 sec)
Making the grid                                    ... done (   0.1 sec)
Mapping shells                                     ... done
Starting the XC term evaluation                    ... done (   0.0 sec)
  promolecular density results
     # of electrons  =     37.997214089
     EX              =    -32.713290824
     EC              =     -1.280916934
     EX+EC           =    -33.994207758
Transforming the Hamiltonian                       ... done (   0.0 sec)
Diagonalizing the Hamiltonian                      ... done (   0.0 sec)
Back transforming the eigenvectors                 ... done (   0.0 sec)
Now organizing SCF variables                       ... done
                      ------------------
                      INITIAL GUESS DONE (   0.1 sec)
                      ------------------
             **** ENERGY FILE WAS UPDATED (orca.en.tmp) ****
Finished Guess after   0.2 sec
Maximum memory used throughout the entire GUESS-calculation: 6.7 MB


           ************************************************************
           *        Program running with 6 parallel MPI-processes     *
           *              working on a common directory               *
           ************************************************************

-------------------------------------------------------------------------------------------
                                      ORCA LEAN-SCF
                              memory conserving SCF solver
-------------------------------------------------------------------------------------------

----------------------------------------D-I-I-S--------------------------------------------
Iteration    Energy (Eh)           Delta-E    RMSDP     MaxDP     DIISErr   Damp  Time(sec)
-------------------------------------------------------------------------------------------
               ***  Starting incremental Fock matrix formation  ***
    1    -262.7753638105418190     0.00e+00  1.22e-02  1.10e-01  2.02e-01  0.700   0.3
    2    -262.8420268841568941    -6.67e-02  8.04e-03  7.53e-02  8.54e-02  0.700   0.2
                               ***Turning on AO-DIIS***
    3    -262.8658742596317097    -2.38e-02  3.32e-03  2.33e-02  3.60e-02  0.700   0.2
    4    -262.8808811699966554    -1.50e-02  5.24e-03  3.66e-02  1.62e-02  0.000   0.2
    5    -262.9139949002560002    -3.31e-02  1.08e-03  8.44e-03  7.28e-03  0.000   0.2
                              *** Initializing SOSCF ***
---------------------------------------S-O-S-C-F--------------------------------------
Iteration    Energy (Eh)           Delta-E    RMSDP     MaxDP     MaxGrad    Time(sec)
--------------------------------------------------------------------------------------
    6    -262.9142180818267889    -2.23e-04  4.10e-04  3.10e-03  2.92e-03     0.2
               *** Restarting incremental Fock matrix formation ***
    7    -262.9141491854326773     6.89e-05  7.03e-04  5.42e-03  1.59e-03     0.3
    8    -262.9140390598577710     1.10e-04  5.26e-04  3.99e-03  5.67e-03     0.3
    9    -262.9141607700638588    -1.22e-04  4.62e-05  3.11e-04  1.17e-04     0.3
   10    -262.9141606072662398     1.63e-07  2.75e-05  2.14e-04  2.23e-04     0.2
   11    -262.9141608933481393    -2.86e-07  9.11e-06  6.60e-05  1.83e-05     0.2
   12    -262.9141608915667234     1.78e-09  4.91e-06  3.50e-05  2.36e-05     0.2
                 **** Energy Check signals convergence ****

               *****************************************************
               *                     SUCCESS                       *
               *           SCF CONVERGED AFTER  12 CYCLES          *
               *****************************************************

Recomputing exchange energy using gridx3       ... done (    0.417 sec)
Old exchange energy                            :     -6.590847748 Eh
New exchange energy                            :     -6.590862702 Eh
Exchange energy change after final integration :     -0.000014954 Eh
Total energy after final integration           :   -262.914175850 Eh
             **** ENERGY FILE WAS UPDATED (orca.en.tmp) ****

----------------
TOTAL SCF ENERGY
----------------

Total Energy       :       -262.91417585015529 Eh           -7154.25844 eV

Components:
Nuclear Repulsion  :        147.67724515151502 Eh            4018.50214 eV
Electronic Energy  :       -410.59140604766793 Eh          -11172.76017 eV
One Electron Energy:       -648.08556367663869 Eh          -17635.30475 eV
Two Electron Energy:        237.49415762897075 Eh            6462.54458 eV

Virial components:
Potential Energy   :       -523.59448962777924 Eh          -14247.73040 eV
Kinetic Energy     :        260.68031377762389 Eh            7093.47196 eV
Virial Ratio       :          2.00856935470178

DFT components:
N(Alpha)           :       19.000002510714 electrons
N(Beta)            :       19.000002510714 electrons
N(Total)           :       38.000005021428 electrons
E(X)               :      -26.283990121988 Eh       
E(C)               :       -1.518807830885 Eh       
E(XC)              :      -27.802797952873 Eh       

---------------
SCF CONVERGENCE
---------------

  Last Energy change         ...   -1.7814e-09  Tolerance :   1.0000e-08
  Last MAX-Density change    ...    3.5028e-05  Tolerance :   1.0000e-07
  Last RMS-Density change    ...    4.9055e-06  Tolerance :   5.0000e-09
  Last DIIS Error            ...    2.9168e-03  Tolerance :   5.0000e-07
  Last Orbital Gradient      ...    2.3623e-05  Tolerance :   1.0000e-05
  Last Orbital Rotation      ...    1.9608e-05  Tolerance :   1.0000e-05


----------------
ORBITAL ENERGIES
----------------

  NO   OCC          E(Eh)            E(eV) 
   0   2.0000     -19.228456      -523.2329 
   1   2.0000     -14.550273      -395.9331 
   2   2.0000     -14.418497      -392.3472 
   3   2.0000     -10.190381      -277.2944 
   4   2.0000     -10.189623      -277.2737 
   5   2.0000      -1.231636       -33.5145 
   6   2.0000      -1.074994       -29.2521 
   7   2.0000      -0.751974       -20.4623 
   8   2.0000      -0.586683       -15.9645 
   9   2.0000      -0.571795       -15.5593 
  10   2.0000      -0.561849       -15.2887 
  11   2.0000      -0.561297       -15.2737 
  12   2.0000      -0.466366       -12.6905 
  13   2.0000      -0.464217       -12.6320 
  14   2.0000      -0.421204       -11.4615 
  15   2.0000      -0.354477        -9.6458 
  16   2.0000      -0.336748        -9.1634 
  17   2.0000      -0.336637        -9.1604 
  18   2.0000      -0.276574        -7.5260 
  19   0.0000      -0.010309        -0.2805 
  20   0.0000      -0.010246        -0.2788 
  21   0.0000       0.006457         0.1757 
  22   0.0000       0.081879         2.2280 
  23   0.0000       0.102962         2.8017 
  24   0.0000       0.114999         3.1293 
  25   0.0000       0.137517         3.7420 
  26   0.0000       0.186013         5.0617 
  27   0.0000       0.325048         8.8450 
  28   0.0000       0.362715         9.8700 
  29   0.0000       0.406277        11.0554 
*Only the first 10 virtual orbitals were printed.

                    ********************************
                    * MULLIKEN POPULATION ANALYSIS *
                    ********************************

-----------------------
MULLIKEN ATOMIC CHARGES
-----------------------
   0 C :   -0.072835
   1 C :   -0.062589
   2 O :   -0.192423
   3 N :    0.461946
   4 N :   -0.260703
   5 H :    0.031458
   6 H :    0.031459
   7 H :    0.031843
   8 H :    0.031844
Sum of atomic charges:    0.0000000

--------------------------------
MULLIKEN REDUCED ORBITAL CHARGES
--------------------------------
  0 C s       :     3.131314  s :     3.131314
      pz      :     0.946291  p :     2.914183
      px      :     0.983325
      py      :     0.984567
      dz2     :     0.005296  d :     0.027337
      dxz     :     0.007876
      dyz     :     0.004773
      dx2y2   :     0.005322
      dxy     :     0.004070

  1 C s       :     3.130446  s :     3.130446
      pz      :     0.947517  p :     2.904720
      px      :     0.977585
      py      :     0.979618
      dz2     :     0.005314  d :     0.027423
      dxz     :     0.007988
      dyz     :     0.004644
      dx2y2   :     0.005411
      dxy     :     0.004067

  2 O s       :     3.842070  s :     3.842070
      pz      :     1.627537  p :     4.323492
      px      :     1.341687
      py      :     1.354267
      dz2     :     0.003001  d :     0.026861
      dxz     :     0.003830
      dyz     :     0.003552
      dx2y2   :     0.007412
      dxy     :     0.009066

  3 N s       :     3.200672  s :     3.200672
      pz      :     1.205251  p :     3.241592
      px      :     1.015529
      py      :     1.020813
      dz2     :     0.004312  d :     0.095789
      dxz     :     0.020418
      dyz     :     0.018717
      dx2y2   :     0.039034
      dxy     :     0.013309

  4 N s       :     3.982188  s :     3.982188
      pz      :     1.105420  p :     3.232579
      px      :     1.061964
      py      :     1.065196
      dz2     :     0.004143  d :     0.045936
      dxz     :     0.007693
      dyz     :     0.006939
      dx2y2   :     0.014664
      dxy     :     0.012497

  5 H s       :     0.945385  s :     0.945385
      pz      :     0.011762  p :     0.023157
      px      :     0.006000
      py      :     0.005395

  6 H s       :     0.945384  s :     0.945384
      pz      :     0.011762  p :     0.023157
      px      :     0.006000
      py      :     0.005395

  7 H s       :     0.945005  s :     0.945005
      pz      :     0.011765  p :     0.023152
      px      :     0.006040
      py      :     0.005347

  8 H s       :     0.945004  s :     0.945004
      pz      :     0.011765  p :     0.023152
      px      :     0.006040
      py      :     0.005347



                     *******************************
                     * LOEWDIN POPULATION ANALYSIS *
                     *******************************

----------------------
LOEWDIN ATOMIC CHARGES
----------------------
   0 C :   -0.057559
   1 C :   -0.051655
   2 O :   -0.142576
   3 N :    0.246540
   4 N :   -0.094245
   5 H :    0.024713
   6 H :    0.024714
   7 H :    0.025033
   8 H :    0.025034

-------------------------------
LOEWDIN REDUCED ORBITAL CHARGES
-------------------------------
  0 C s       :     2.893344  s :     2.893344
      pz      :     1.043891  p :     3.094357
      px      :     1.039151
      py      :     1.011315
      dz2     :     0.014232  d :     0.069858
      dxz     :     0.020891
      dyz     :     0.012557
      dx2y2   :     0.010442
      dxy     :     0.011736

  1 C s       :     2.893731  s :     2.893731
      pz      :     1.044722  p :     3.087945
      px      :     1.037417
      py      :     1.005807
      dz2     :     0.014258  d :     0.069979
      dxz     :     0.021050
      dyz     :     0.012322
      dx2y2   :     0.010642
      dxy     :     0.011708

  2 O s       :     3.599069  s :     3.599069
      pz      :     1.621060  p :     4.492948
      px      :     1.431611
      py      :     1.440277
      dz2     :     0.007305  d :     0.050559
      dxz     :     0.005517
      dyz     :     0.005093
      dx2y2   :     0.010669
      dxy     :     0.021975

  3 N s       :     3.028082  s :     3.028082
      pz      :     1.154667  p :     3.528669
      px      :     1.189375
      py      :     1.184627
      dz2     :     0.011590  d :     0.196710
      dxz     :     0.039244
      dyz     :     0.035930
      dx2y2   :     0.074610
      dxy     :     0.035336

  4 N s       :     3.486160  s :     3.486160
      pz      :     1.116661  p :     3.522388
      px      :     1.204205
      py      :     1.201522
      dz2     :     0.010758  d :     0.085697
      dxz     :     0.011154
      dyz     :     0.010102
      dx2y2   :     0.021368
      dxy     :     0.032314

  5 H s       :     0.908933  s :     0.908933
      pz      :     0.034210  p :     0.066353
      px      :     0.016642
      py      :     0.015502

  6 H s       :     0.908933  s :     0.908933
      pz      :     0.034210  p :     0.066353
      px      :     0.016641
      py      :     0.015502

  7 H s       :     0.908672  s :     0.908672
      pz      :     0.034257  p :     0.066295
      px      :     0.016627
      py      :     0.015411

  8 H s       :     0.908671  s :     0.908671
      pz      :     0.034257  p :     0.066295
      px      :     0.016627
      py      :     0.015411



                      *****************************
                      * MAYER POPULATION ANALYSIS *
                      *****************************

  NA   - Mulliken gross atomic population
  ZA   - Total nuclear charge
  QA   - Mulliken gross atomic charge
  VA   - Mayer's total valence
  BVA  - Mayer's bonded valence
  FA   - Mayer's free valence

  ATOM       NA         ZA         QA         VA         BVA        FA
  0 C      6.0728     6.0000    -0.0728     4.0205     4.0205     0.0000
  1 C      6.0626     6.0000    -0.0626     4.0226     4.0226     0.0000
  2 O      8.1924     8.0000    -0.1924     2.0864     2.0864     0.0000
  3 N      6.5381     7.0000     0.4619     3.6771     3.6771    -0.0000
  4 N      7.2607     7.0000    -0.2607     2.6556     2.6556     0.0000
  5 H      0.9685     1.0000     0.0315     0.9755     0.9755     0.0000
  6 H      0.9685     1.0000     0.0315     0.9755     0.9755     0.0000
  7 H      0.9682     1.0000     0.0318     0.9761     0.9761     0.0000
  8 H      0.9682     1.0000     0.0318     0.9761     0.9761     0.0000

  Mayer bond orders larger than 0.100000
B(  0-C ,  1-C ) :   2.0648 B(  0-C ,  5-H ) :   0.9627 B(  0-C ,  6-H ) :   0.9627 
B(  1-C ,  7-H ) :   0.9629 B(  1-C ,  8-H ) :   0.9629 B(  2-O ,  3-N ) :   1.5492 
B(  2-O ,  4-N ) :   0.5214 B(  3-N ,  4-N ) :   2.1175 

-------
TIMINGS
-------

Total SCF time: 0 days 0 hours 0 min 3 sec 

Total time                  ....       3.848 sec
Sum of individual times     ....       3.576 sec  ( 92.9%)

SCF preparation             ....       0.164 sec  (  4.3%)
Fock matrix formation       ....       3.248 sec  ( 84.4%)
  Startup                   ....       0.004 sec  (  0.1% of F)
  Split-RI-J                ....       0.258 sec  (  8.0% of F)
  Chain of spheres X        ....       2.370 sec  ( 73.0% of F)
  XC integration            ....       0.744 sec  ( 22.9% of F)
    XC Preparation          ....       0.000 sec  (  0.0% of XC)
    Basis function eval.    ....       0.198 sec  ( 26.6% of XC)
    Density eval.           ....       0.090 sec  ( 12.1% of XC)
    XC-Functional eval.     ....       0.056 sec  (  7.6% of XC)
    XC-Potential eval.      ....       0.101 sec  ( 13.6% of XC)
Diagonalization             ....       0.000 sec  (  0.0%)
Density matrix formation    ....       0.023 sec  (  0.6%)
Total Energy calculation    ....       0.013 sec  (  0.3%)
Population analysis         ....       0.011 sec  (  0.3%)
Orbital Transformation      ....       0.012 sec  (  0.3%)
Orbital Orthonormalization  ....       0.000 sec  (  0.0%)
DIIS solution               ....       0.061 sec  (  1.6%)
SOSCF solution              ....       0.045 sec  (  1.2%)
Finished LeanSCF after   3.9 sec

Maximum memory used throughout the entire LEANSCF-calculation: 7.8 MB


-------------------------------------------------------------------------------
                          DFT DISPERSION CORRECTION                            
                                                                               
                              DFTD3 V3.1  Rev 1                                
                          USING Becke-Johnson damping                          
-------------------------------------------------------------------------------
The B3LYP functional is recognized
Active option DFTDOPT                   ...         4   

molecular C6(AA) [au] = 887.364384 


            DFT-D V3
 parameters
 s6 scaling factor         :     1.0000 
 a1 scaling factor         :     0.3981 
 s8 scaling factor         :     1.9889 
 a2 scaling factor         :     4.4211 
 ad hoc parameters k1-k3   :    16.0000     1.3333    -4.0000 

 Edisp/kcal,au: -5.447122841279  -0.008680541865 
 E6   /kcal   :  -2.676248020 
 E8   /kcal   :  -2.770874822 
 % E8         :  50.868594347 

-------------------------   ----------------
Dispersion correction           -0.008680542
-------------------------   ----------------


-------------------------   --------------------
FINAL SINGLE POINT ENERGY      -262.922856392020
-------------------------   --------------------



           ************************************************************
           *        Program running with 6 parallel MPI-processes     *
           *              working on a common directory               *
           ************************************************************
------------------------------------------------------------------------------
                         ORCA SCF GRADIENT CALCULATION
------------------------------------------------------------------------------

Nuc. rep. gradient        (SHARK) ... done (  0.0 sec)
HCore & Overlap gradient  (SHARK) ... done (  0.0 sec)
Split-RIJ-J gradient      (SHARK) ... done (  0.2 sec)
done (  1.5 sec)
XC gradient                       ... done (  0.3 sec)
Dispersion correction             ... done (  0.1 sec)

-------------------
DISPERSION GRADIENT
-------------------

   1   C   :   -0.000435906   -0.000315994   -0.000000001
   2   C   :   -0.000192163   -0.000480878    0.000000000
   3   O   :    0.000420812    0.000232223   -0.000000003
   4   N   :    0.000390412    0.000488936    0.000000010
   5   N   :    0.000196499    0.000555588   -0.000000006
   6   H   :   -0.000188874   -0.000046724    0.000074318
   7   H   :   -0.000188873   -0.000046725   -0.000074320
   8   H   :   -0.000000953   -0.000193213    0.000075638
   9   H   :   -0.000000952   -0.000193212   -0.000075637

Difference to translation invariance:
           :   -0.0000000000    0.0000000000    0.0000000000

Difference to rotation invariance:
           :   -0.0000000000    0.0000000000   -0.0000000000

Norm of the Dispersion gradient    ...    0.0013041022
RMS gradient                       ...    0.0002509746
MAX gradient                       ...    0.0005555880

------------------
CARTESIAN GRADIENT
------------------

   1   C   :    0.000199797   -0.000008203    0.000000043
   2   C   :   -0.000204003   -0.000063894    0.000000232
   3   O   :   -0.000126933   -0.000023626   -0.000011294
   4   N   :   -0.000044273   -0.000066924    0.000023034
   5   N   :    0.000051760    0.000085280   -0.000011730
   6   H   :    0.000000766    0.000009566   -0.000046688
   7   H   :    0.000000487    0.000009710    0.000046434
   8   H   :    0.000061187    0.000028995   -0.000035405
   9   H   :    0.000061212    0.000029094    0.000035373

Difference to translation invariance:
           :    0.0000000000   -0.0000000000   -0.0000000000

Difference to rotation invariance:
           :    0.0000001668   -0.0000001055   -0.0000144056

Norm of the Cartesian gradient     ...    0.0003684390
RMS gradient                       ...    0.0000709061
MAX gradient                       ...    0.0002040026

-------
TIMINGS
-------

Total SCF gradient time     ....        2.027 sec

Densities                   ....       0.000 sec  (  0.0%)
One electron gradient       ....       0.018 sec  (  0.9%)
RI-J Coulomb gradient       ....       0.151 sec  (  7.4%)
COSX gradient               ....       1.503 sec  ( 74.1%)
XC gradient                 ....       0.302 sec  ( 14.9%)

Maximum memory used throughout the entire SCFGRAD-calculation: 26.6 MB


           ************************************************************
           *        Program running with 6 parallel MPI-processes     *
           *              working on a common directory               *
           ************************************************************

------------------------------------------------------------------------------
                              ORCA PROPERTY CALCULATIONS
------------------------------------------------------------------------------

GBWName                                 ... orca.gbw
Number of atoms                         ...      9
Number of basis functions               ...     90
Max core memory                         ...   4096 MB

Electric properties:
Dipole moment                           ... YES
Quadrupole moment                       ...  NO
Static polarizability (Dipole/Dipole)   ...  NO
Static polarizability (Dipole/Quad.)    ...  NO
Static polarizability (Quad./Quad.)     ...  NO
Static polarizability (Velocity)        ...  NO
Static hyperpolarizability              ...  NO

Atomic electric properties:
Dipole moment                           ...  NO
Quadrupole moment                       ...  NO
Static polarizability                   ...  NO

Choice of electric origin               ... Center of mass
Position of electric origin             ...     0.404119     0.490487    -0.000002

General magnetic properties:
Magnetizability                         ...  NO

EPR properties:
g-Tensor (aka g-matrix)                 ...  NO
Zero-Field splitting spin-orbit         ...  NO
Zero-field splitting spin-spin          ...  NO
Hyperfine couplings                     ...  NO (   0 nuclei)
Quadrupole couplings                    ...  NO (   0 nuclei)
Contact density                         ...  NO (   0 nuclei)

NMR properties:
Chemical shifts                         ...  NO (   0 nuclei)
Spin-rotation constants                 ...  NO (   0 nuclei)
Spin-spin couplings                     ...  NO (   0 nuclei,    0 pairs)

Choice of magnetic origin               ... GIAO
Position of magnetic origin             ...     0.000000     0.000000     0.000000

Properties with geometric perturbations:
SCF Hessian                             ...  NO
IR spectrum                             ...  NO
VCD spectrum                            ...  NO
X-ray spectroscopy properties:
SCF XES/XAS/RIXS spectra                ...  NO

SCF SOC stabilization energy            ...  NO
Diagonal Born-Oppenheimer correction    ...  NO

-------------
DIPOLE MOMENT
-------------

Method             : SCF
Type of density    : Electron Density
Multiplicity       :   1
Irrep              :   0
Energy             :  -262.9141758501552886 Eh
Basis              : AO
                                X                 Y                 Z
Electronic contribution:      4.753376741       5.625894682       0.000052535
Nuclear contribution   :     -4.741098765      -5.639241773       0.000004067
                        -----------------------------------------
Total Dipole Moment    :      0.012277976      -0.013347091       0.000056602
                        -----------------------------------------
Magnitude (a.u.)       :      0.018135511
Magnitude (Debye)      :      0.046096804



--------------------
Rotational spectrum 
--------------------
 
Rotational constants in cm-1:             0.280080             0.092334             0.071496 
Rotational constants in MHz :          8396.590107          2768.102573          2143.408011 

Dipole components along the rotational axes: 
x,y,z [a.u.] :    -0.002552    -0.017955     0.000056 
x,y,z [Debye]:    -0.006487    -0.045638     0.000144 

 

Dipole moment calculation done in   0.0 sec 

Maximum memory used throughout the entire PROP-calculation: 4.7 MB

--------------------------------
SUGGESTED CITATIONS FOR THIS RUN
--------------------------------

Below you find a list of papers that are relevant to this ORCA run
We neither can nor want to force you to cite these papers, but we appreciate if you do
You receive ORCA, which is the product of decades of hard work by many enthusiastic individuals, for free
The only thing we kindly ask in return is that you cite our papers,
We deeply appreciate it, if you show your appreciation for ORCA by not just citing the generic ORCA reference.

Please note that relegating all ORCA citations to the supporting information does *not* help us.
SI sections are not indexed - citations you put there will not count into any citation statistics
But we need these citations in order to attract the funding resources that allow us to do what we are doing

Therefore, if you are a happy ORCA user, please consider citing a few of the papers listed below in the main body of your paper

In addition to the list printed below, the program has created the file orca.bibtex that contains the list in bibtex format
You can import this file easily into all common literature databanks and citation aid programs


List of essential papers. We consider these as the minimum necessary citations

  1. Neese, F.
     Software update: the ORCA program system, version 6.0
     WIRES Comput. Molec. Sci. 2025 15(1), e70019
     doi.org/10.1002/wcms.7019

List of papers to cite with high priority. The work reported in these papers was absolutely
necessary for this run to complete.
Our perspective: the developers of density functionals and basis sets usually get cited in chemistry papers
Good! But without the algorithms to do something with them, the functionals or basis sets would not do anything.
Hence, in our opinion, the algorithm design and method developments papers are equally worthy of getting cited

  1. Neese, F.
     An improvement of the resolution of the identity approximation for the formation of the Coulomb matrix
     J. Comp. Chem. 2003 24(14), 1740-1747
     doi.org/10.1002/jcc.10318
  2. Neese, F.; Wennmohs, F.; Hansen, A.; Becker, U.
     Efficient, approximate and parallel Hartree-Fock and hybrid DFT calculations. A 'chain-of-spheres' algorithm for the Hartree-Fock exchange
     Chem. Phys. 2009 356(1-3), 98-109
     doi.org/10.1016/j.chemphys.2008.10.036
  3. Grimme, S.; Antony, J.; Ehrlich, S.; Krieg, H.
     A consistent and accurate ab initio parametrization of density functional dispersion correction (DFT-D) for the 94 elements H-Pu
     J. Chem. Phys. 2010 132 , 154104
     doi.org/10.1063/1.3382344
  4. Grimme, S.; Ehrlich, S.; Goerigk, L.
     Effect of the damping function in dispersion corrected density functional theory
     J. Comput. Chem. 2011 32(7), 1456-1465
     doi.org/10.1002/jcc.21759
  5. Helmich-Paris, B.; de Souza, B.; Neese, F.; Izsák, R.
     An improved chain of spheres for exchange algorithm
     J. Chem. Phys. 2021 155(10), 104109
     doi.org/10.1063/5.0058766
  6. Neese, F.
     The SHARK Integral Generation and Digestion System
     J. Comp. Chem. 2022 44(3), 381
     doi.org/10.1002/jcc.26942

List of suggested additional citations. These are papers that are important in the 'surrounding' of 
of this run, or papers that preceded the highly important papers. If you like your results we are grateful for a citation.

  1. Izsak, R.; Neese, F.
     An overlap fitted chain of spheres exchange method
     J. Chem. Phys. 2011 135 , 144105
     doi.org/10.1063/1.3646921
  2. Izsak, R.; Hansen, A.; Neese, F.
     The resolution of identity and chain of spheres approximations for the LPNO-CCSD singles Fock term
     Molec. Phys. 2012 110 , 2413-2417
     doi.org/10.1080/00268976.2012.687466
  3. Neese, F.
     The ORCA program system
     WIRES Comput. Molec. Sci. 2012 2(1), 73-78
     doi.org/10.1002/wcms.81
  4. Izsak, R.; Neese, F.; Klopper, W.
     Robust fitting techniques in the chain of spheres approximation to the Fock exchange: The role of the complementary space
     J. Chem. Phys. 2013 139 , 
     doi.org/10.1063/1.4819264
  5. Neese, F.
     Software update: the ORCA program system, version 4.0
     WIRES Comput. Molec. Sci. 2018 8(1), 1-6
     doi.org/10.1002/wcms.1327
  6. Neese, F.; Wennmohs, F.; Becker, U.; Riplinger, C.
     The ORCA quantum chemistry program package
     J. Chem. Phys. 2020 152(22), 224108
     doi.org/10.1063/5.0004608
  7. Neese, F.
     Software update: The ORCA program system—Version 5.0
     WIRES Comput. Molec. Sci. 2022 12(1), e1606
     doi.org/10.1002/wcms.1606

List of optional additional citations

  1. Neese, F.
     Approximate second-order SCF convergence for spin unrestricted wavefunctions
     Chem. Phys. Lett. 2000 325(1-3), 93-98
     doi.org/10.1016/s0009-2614(00)00662-x

Timings for individual modules:

Sum of individual times          ...        8.739 sec (=   0.146 min)
Startup calculation              ...        1.017 sec (=   0.017 min)  11.6 %
SCF iterations                   ...        4.783 sec (=   0.080 min)  54.7 %
Property calculations            ...        0.445 sec (=   0.007 min)   5.1 %
SCF Gradient evaluation          ...        2.494 sec (=   0.042 min)  28.5 %
                             ****ORCA TERMINATED NORMALLY****
TOTAL RUN TIME: 0 days 0 hours 0 minutes 9 seconds 296 msec
